(written by ASE)

2000 atoms
1 atom types

0.0                     110  xlo xhi
0.0                      40  ylo yhi
0.0                    0.25  zlo zhi

Atoms # atomic

     1   1                     4.5                    5.75                       0
     2   1                     4.5                    7.25                       0
     3   1                     4.5                    8.75                       0
     4   1                     4.5                   10.25                       0
     5   1                     4.5                   11.75                       0
     6   1                     4.5                   13.25                       0
     7   1      4.5000000000000009                   14.75                       0
     8   1      4.5000000000000009                   16.25                       0
     9   1      4.5000000000000009                   17.75                       0
    10   1      4.5000000000000009                   19.25                       0
    11   1      4.5000000000000009                   20.75                       0
    12   1      4.5000000000000009                   22.25                       0
    13   1      4.5000000000000009                   23.75                       0
    14   1      4.5000000000000009                   25.25                       0
    15   1      4.5000000000000018                   26.75                       0
    16   1      4.5000000000000018                   28.25                       0
    17   1      4.5000000000000018                   29.75                       0
    18   1      4.5000000000000018                   31.25                       0
    19   1      4.5000000000000018                   32.75                       0
    20   1      4.5000000000000018                   34.25                       0
    21   1      5.5000000000000204                    5.75                       0
    22   1      5.5000000000004112                    7.25                       0
    23   1       5.500000000008253                    8.75                       0
    24   1      5.5000000001657696                   10.25                       0
    25   1      5.5000000033295624                   11.75                       0
    26   1      5.5000000668759617                   13.25                       0
    27   1      5.5000013432044454                   14.75                       0
    28   1      5.5000269648115578                   16.25                       0
    29   1       5.500535948421005                   17.75                       0
    30   1      5.5088988060393351                   19.25                       0
    31   1      5.5398816817655447                   20.75                       0
    32   1      5.5482445393838749                   22.25                       0
    33   1       5.548753522993322                   23.75                       0
    34   1      5.5487791446004344                   25.25                       0
    35   1      5.5487804209289182                   26.75                       0
    36   1      5.5487804844753175                   28.25                       0
    37   1      5.5487804876391102                   29.75                       0
    38   1      5.5487804877966269                   31.25                       0
    39   1      5.5487804878044686                   32.75                       0
    40   1      5.5487804878048594                   34.25                       0
    41   1      6.5000000000000409                    5.75                       0
    42   1      6.5000000000008225                    7.25                       0
    43   1      6.5000000000165059                    8.75                       0
    44   1      6.5000000003315392                   10.25                       0
    45   1      6.5000000066591248                   11.75                       0
    46   1      6.5000001337519233                   13.25                       0
    47   1        6.50000268640889                   14.75                       0
    48   1      6.5000539296231148                   16.25                       0
    49   1        6.50107189684201                   17.75                       0
    50   1      6.5177976120786703                   19.25                       0
    51   1      6.5797633635310877                   20.75                       0
    52   1      6.5964890787677479                   22.25                       0
    53   1      6.5975070459866423                   23.75                       0
    54   1       6.597558289200868                   25.25                       0
    55   1      6.5975608418578346                   26.75                       0
    56   1      6.5975609689506332                   28.25                       0
    57   1      6.5975609752782187                   29.75                       0
    58   1      6.5975609755932521                   31.25                       0
    59   1      6.5975609756089355                   32.75                       0
    60   1      6.5975609756097171                   34.25                       0
    61   1      7.5000000000000613                    5.75                       0
    62   1      7.5000000000012328                    7.25                       0
    63   1      7.5000000000247597                    8.75                       0
    64   1       7.500000000497308                   10.25                       0
    65   1      7.5000000099886872                   11.75                       0
    66   1      7.5000002006278841                   13.25                       0
    67   1      7.5000040296133346                   14.75                       0
    68   1      7.5000808944346726                   16.25                       0
    69   1      7.5016078452630151                   17.75                       0
    70   1      7.5266964181180045                   19.25                       0
    71   1      7.6196450452966316                   20.75                       0
    72   1       7.644733618151621                   22.25                       0
    73   1      7.6462605689799634                   23.75                       0
    74   1      7.6463374338013015                   25.25                       0
    75   1       7.646341262786752                   26.75                       0
    76   1      7.6463414534259488                   28.25                       0
    77   1      7.6463414629173281                   29.75                       0
    78   1      7.6463414633898763                   31.25                       0
    79   1      7.6463414634134033                   32.75                       0
    80   1      7.6463414634145748                   34.25                       0
    81   1      8.5000000000000817                    5.75                       0
    82   1      8.5000000000016431                    7.25                       0
    83   1      8.5000000000330118                    8.75                       0
    84   1      8.5000000006630767                   10.25                       0
    85   1      8.5000000133182496                   11.75                       0
    86   1      8.5000002675038466                   13.25                       0
    87   1      8.5000053728177782                   14.75                       0
    88   1      8.5001078592462296                   16.25                       0
    89   1      8.5021437936840201                   17.75                       0
    90   1      8.5355952241573387                   19.25                       0
    91   1      8.6595267270621754                   20.75                       0
    92   1      8.6929781575354959                   22.25                       0
    93   1      8.6950140919732846                   23.75                       0
    94   1      8.6951165784017341                   25.25                       0
    95   1      8.6951216837156675                   26.75                       0
    96   1      8.6951219379012645                   28.25                       0
    97   1      8.6951219505564374                   29.75                       0
    98   1      8.6951219511865006                   31.25                       0
    99   1       8.695121951217871                   32.75                       0
   100   1      8.6951219512194324                   34.25                       0
   101   1       9.500000000000103                    5.75                       0
   102   1      9.5000000000020535                    7.25                       0
   103   1      9.5000000000412648                    8.75                       0
   104   1      9.5000000008288445                   10.25                       0
   105   1       9.500000016647812                   11.75                       0
   106   1      9.5000003343798074                   13.25                       0
   107   1      9.5000067160222237                   14.75                       0
   108   1      9.5001348240577883                   16.25                       0
   109   1      9.5026797421050233                   17.75                       0
   110   1      9.5444940301966739                   19.25                       0
   111   1      9.6994084088277184                   20.75                       0
   112   1      9.7412226969193689                   22.25                       0
   113   1      9.7437676149666039                   23.75                       0
   114   1      9.7438957230021686                   25.25                       0
   115   1      9.7439021046445848                   26.75                       0
   116   1      9.7439024223765802                   28.25                       0
   117   1      9.7439024381955459                   29.75                       0
   118   1      9.7439024389831275                   31.25                       0
   119   1      9.7439024390223388                   32.75                       0
   120   1      9.7439024390242892                   34.25                       0
   121   1      10.500000000000123                    5.75                       0
   122   1      10.500000000002466                    7.25                       0
   123   1      10.500000000049518                    8.75                       0
   124   1      10.500000000994614                   10.25                       0
   125   1      10.500000019977374                   11.75                       0
   126   1      10.500000401255768                   13.25                       0
   127   1      10.500008059226669                   14.75                       0
   128   1      10.500161788869345                   16.25                       0
   129   1      10.503215690526028                   17.75                       0
   130   1      10.553392836236007                   19.25                       0
   131   1      10.739290090593261                   20.75                       0
   132   1      10.789467236303242                   22.25                       0
   133   1      10.792521137959927                   23.75                       0
   134   1      10.792674867602601                   25.25                       0
   135   1        10.7926825255735                   26.75                       0
   136   1      10.792682906851896                   28.25                       0
   137   1      10.792682925834654                   29.75                       0
   138   1      10.792682926779751                   31.25                       0
   139   1      10.792682926826805                   32.75                       0
   140   1      10.792682926829148                   34.25                       0
   141   1      11.500000000000142                    5.75                       0
   142   1      11.500000000002876                    7.25                       0
   143   1      11.500000000057772                    8.75                       0
   144   1      11.500000001160384                   10.25                       0
   145   1      11.500000023306937                   11.75                       0
   146   1      11.500000468131731                   13.25                       0
   147   1      11.500009402431113                   14.75                       0
   148   1      11.500188753680902                   16.25                       0
   149   1      11.503751638947033                   17.75                       0
   150   1      11.562291642275342                   19.25                       0
   151   1      11.779171772358806                   20.75                       0
   152   1      11.837711775687115                   22.25                       0
   153   1      11.841274660953246                   23.75                       0
   154   1      11.841454012203034                   25.25                       0
   155   1      11.841462946502418                   26.75                       0
   156   1      11.841463391327212                   28.25                       0
   157   1      11.841463413473765                   29.75                       0
   158   1      11.841463414576376                   31.25                       0
   159   1      11.841463414631271                   32.75                       0
   160   1      11.841463414634005                   34.25                       0
   161   1      12.500000000000163                    5.75                       0
   162   1      12.500000000003286                    7.25                       0
   163   1      12.500000000066025                    8.75                       0
   164   1      12.500000001326153                   10.25                       0
   165   1      12.500000026636499                   11.75                       0
   166   1       12.50000053500769                   13.25                       0
   167   1      12.500010745635556                   14.75                       0
   168   1      12.500215718492459                   16.25                       0
   169   1      12.504287587368037                   17.75                       0
   170   1      12.571190448314676                   19.25                       0
   171   1      12.819053454124351                   20.75                       0
   172   1       12.88595631507099                   22.25                       0
   173   1      12.890028183946569                   23.75                       0
   174   1      12.890233156803468                   25.25                       0
   175   1      12.890243367431335                   26.75                       0
   176   1      12.890243875802527                   28.25                       0
   177   1      12.890243901112873                   29.75                       0
   178   1      12.890243902373001                   31.25                       0
   179   1      12.890243902435738                   32.75                       0
   180   1      12.890243902438863                   34.25                       0
   181   1      13.500000000000185                    5.75                       0
   182   1      13.500000000003698                    7.25                       0
   183   1      13.500000000074278                    8.75                       0
   184   1      13.500000001491923                   10.25                       0
   185   1      13.500000029966062                   11.75                       0
   186   1      13.500000601883652                   13.25                       0
   187   1      13.500012088840002                   14.75                       0
   188   1      13.500242683304016                   16.25                       0
   189   1      13.504823535789042                   17.75                       0
   190   1      13.580089254354011                   19.25                       0
   191   1      13.858935135889894                   20.75                       0
   192   1      13.934200854454863                   22.25                       0
   193   1      13.938781706939888                   23.75                       0
   194   1      13.939012301403903                   25.25                       0
   195   1      13.939023788360252                   26.75                       0
   196   1      13.939024360277843                   28.25                       0
   197   1      13.939024388751982                   29.75                       0
   198   1      13.939024390169626                   31.25                       0
   199   1      13.939024390240206                   32.75                       0
   200   1       13.93902439024372                   34.25                       0
   201   1      14.500000000000204                    5.75                       0
   202   1      14.500000000004109                    7.25                       0
   203   1      14.500000000082531                    8.75                       0
   204   1      14.500000001657691                   10.25                       0
   205   1      14.500000033295624                   11.75                       0
   206   1      14.500000668759613                   13.25                       0
   207   1      14.500013432044446                   14.75                       0
   208   1      14.500269648115573                   16.25                       0
   209   1      14.505359484210045                   17.75                       0
   210   1      14.588988060393344                   19.25                       0
   211   1      14.898816817655439                   20.75                       0
   212   1      14.982445393838736                   22.25                       0
   213   1       14.98753522993321                   23.75                       0
   214   1      14.987791446004337                   25.25                       0
   215   1       14.98780420928917                   26.75                       0
   216   1      14.987804844753159                   28.25                       0
   217   1       14.98780487639109                   29.75                       0
   218   1      14.987804877966251                   31.25                       0
   219   1      14.987804878044674                   32.75                       0
   220   1      14.987804878048578                   34.25                       0
   221   1      15.500000000000226                    5.75                       0
   222   1      15.500000000004519                    7.25                       0
   223   1      15.500000000090784                    8.75                       0
   224   1       15.50000000182346                   10.25                       0
   225   1      15.500000036625186                   11.75                       0
   226   1      15.500000735635574                   13.25                       0
   227   1      15.500014775248891                   14.75                       0
   228   1       15.50029661292713                   16.25                       0
   229   1       15.50589543263105                   17.75                       0
   230   1      15.597886866432679                   19.25                       0
   231   1      15.938698499420981                   20.75                       0
   232   1      16.030689933222611                   22.25                       0
   233   1      16.036288752926531                   23.75                       0
   234   1      16.036570590604768                   25.25                       0
   235   1      16.036584630218087                   26.75                       0
   236   1      16.036585329228473                   28.25                       0
   237   1      16.036585364030202                   29.75                       0
   238   1      16.036585365762875                   31.25                       0
   239   1      16.036585365849142                   32.75                       0
   240   1      16.036585365853433                   34.25                       0
   241   1      16.500000000000245                    5.75                       0
   242   1      16.500000000004931                    7.25                       0
   243   1      16.500000000099035                    8.75                       0
   244   1      16.500000001989228                   10.25                       0
   245   1      16.500000039954749                   11.75                       0
   246   1      16.500000802511536                   13.25                       0
   247   1      16.500016118453335                   14.75                       0
   248   1      16.500323577738687                   16.25                       0
   249   1      16.506431381052053                   17.75                       0
   250   1      16.606785672472014                   19.25                       0
   251   1      16.978580181186523                   20.75                       0
   252   1      17.078934472606484                   22.25                       0
   253   1      17.085042275919854                   23.75                       0
   254   1      17.085349735205202                   25.25                       0
   255   1      17.085365051147001                   26.75                       0
   256   1      17.085365813703788                   28.25                       0
   257   1      17.085365851669309                   29.75                       0
   258   1      17.085365853559502                   31.25                       0
   259   1      17.085365853653606                   32.75                       0
   260   1      17.085365853658296                   34.25                       0
   261   1      17.500000000000266                    5.75                       0
   262   1      17.500000000005343                    7.25                       0
   263   1      17.500000000107292                    8.75                       0
   264   1      17.500000002154998                   10.25                       0
   265   1      17.500000043284309                   11.75                       0
   266   1      17.500000869387499                   13.25                       0
   267   1       17.50001746165778                   14.75                       0
   268   1      17.500350542550244                   16.25                       0
   269   1       17.50696732947306                   17.75                       0
   270   1      17.615684478511348                   19.25                       0
   271   1      18.018461862952069                   20.75                       0
   272   1      18.127179011990357                   22.25                       0
   273   1      18.133795798913173                   23.75                       0
   274   1      18.134128879805637                   25.25                       0
   275   1      18.134145472075922                   26.75                       0
   276   1      18.134146298179104                   28.25                       0
   277   1      18.134146339308415                   29.75                       0
   278   1      18.134146341356125                   31.25                       0
   279   1      18.134146341458077                   32.75                       0
   280   1      18.134146341463151                   34.25                       0
   281   1      18.500000000000284                    5.75                       0
   282   1      18.500000000005752                    7.25                       0
   283   1      18.500000000115545                    8.75                       0
   284   1      18.500000002320768                   10.25                       0
   285   1      18.500000046613874                   11.75                       0
   286   1      18.500000936263458                   13.25                       0
   287   1      18.500018804862222                   14.75                       0
   288   1      18.500377507361801                   16.25                       0
   289   1      18.507503277894063                   17.75                       0
   290   1      18.624583284550681                   19.25                       0
   291   1      19.058343544717612                   20.75                       0
   292   1       19.17542355137423                   22.25                       0
   293   1      19.182549321906492                   23.75                       0
   294   1      19.182908024406068                   25.25                       0
   295   1      19.182925893004835                   26.75                       0
   296   1       19.18292678265442                   28.25                       0
   297   1      19.182926826947526                   29.75                       0
   298   1      19.182926829152748                   31.25                       0
   299   1      19.182926829262541                   32.75                       0
   300   1      19.182926829268009                   34.25                       0
   301   1      19.500000000000306                    5.75                       0
   302   1      19.500000000006164                    7.25                       0
   303   1      19.500000000123798                    8.75                       0
   304   1      19.500000002486537                   10.25                       0
   305   1      19.500000049943438                   11.75                       0
   306   1       19.50000100313942                   13.25                       0
   307   1      19.500020148066668                   14.75                       0
   308   1      19.500404472173358                   16.25                       0
   309   1       19.50803922631507                   17.75                       0
   310   1      19.633482090590014                   19.25                       0
   311   1      20.098225226483155                   20.75                       0
   312   1      20.223668090758103                   22.25                       0
   313   1      20.231302844899815                   23.75                       0
   314   1      20.231687169006506                   25.25                       0
   315   1      20.231706313933753                   26.75                       0
   316   1      20.231707267129735                   28.25                       0
   317   1      20.231707314586636                   29.75                       0
   318   1      20.231707316949375                   31.25                       0
   319   1      20.231707317067009                   32.75                       0
   320   1      20.231707317072868                   34.25                       0
   321   1      20.500000000000327                    5.75                       0
   322   1      20.500000000006573                    7.25                       0
   323   1      20.500000000132051                    8.75                       0
   324   1      20.500000002652307                   10.25                       0
   325   1      20.500000053272998                   11.75                       0
   326   1      20.500001070015379                   13.25                       0
   327   1      20.500021491271113                   14.75                       0
   328   1      20.500431436984918                   16.25                       0
   329   1      20.508575174736073                   17.75                       0
   330   1      20.642380896629351                   19.25                       0
   331   1      21.138106908248698                   20.75                       0
   332   1      21.271912630141976                   22.25                       0
   333   1      21.280056367893131                   23.75                       0
   334   1      21.280466313606937                   25.25                       0
   335   1       21.28048673486267                   26.75                       0
   336   1      21.280487751605051                   28.25                       0
   337   1      21.280487802225743                   29.75                       0
   338   1      21.280487804745999                   31.25                       0
   339   1      21.280487804871477                   32.75                       0
   340   1      21.280487804877723                   34.25                       0
   341   1      21.500000000000348                    5.75                       0
   342   1      21.500000000006985                    7.25                       0
   343   1      21.500000000140304                    8.75                       0
   344   1      21.500000002818076                   10.25                       0
   345   1      21.500000056602559                   11.75                       0
   346   1      21.500001136891342                   13.25                       0
   347   1      21.500022834475558                   14.75                       0
   348   1      21.500458401796472                   16.25                       0
   349   1      21.509111123157076                   17.75                       0
   350   1      21.651279702668685                   19.25                       0
   351   1      22.177988590014241                   20.75                       0
   352   1      22.320157169525849                   22.25                       0
   353   1      22.328809890886454                   23.75                       0
   354   1      22.329245458207367                   25.25                       0