(written by ASE)

2000 atoms
1 atom types

0.0      101.40000000000001  xlo xhi
0.0                      30  ylo yhi
0.0                    0.25  zlo zhi

Atoms # atomic

     1   1     0.50000000000000155 -6.5738408768417855e-33                       0
     2   1     0.50000000000000167                     1.5                       0
     3   1     0.50000000000000178                       3                       0
     4   1     0.50000000000000189                     4.5                       0
     5   1       0.500000000000002                       6                       0
     6   1     0.50000000000000211                     7.5                       0
     7   1     0.50000000000000211                       9                       0
     8   1     0.50000000000000211                    10.5                       0
     9   1     0.50000000000000222                      12                       0
    10   1     0.50000000000000233                    13.5                       0
    11   1     0.50000000000000244                      15                       0
    12   1     0.50000000000000255                    16.5                       0
    13   1     0.50000000000000266                      18                       0
    14   1     0.50000000000000278                    19.5                       0
    15   1     0.50000000000000289                      21                       0
    16   1       0.500000000000003                    22.5                       0
    17   1     0.50000000000000311                      24                       0
    18   1     0.50000000000000311                    25.5                       0
    19   1     0.50000000000000322                      27                       0
    20   1     0.50000000000000322                    28.5                       0
    21   1      1.5000471588912174 -1.9722142660618878e-32                       0
    22   1      1.5000856941625087                     1.5                       0
    23   1       1.500155370905889                       3                       0
    24   1      1.5002805699800796                     4.5                       0
    25   1      1.5005030269190089                       6                       0
    26   1      1.5008905323078787                     7.5                       0
    27   1       1.501542783330041                       9                       0
    28   1      1.5025797548821123                    10.5                       0
    29   1      1.5040875827911639                      12                       0
    30   1      1.5060179846107467                    13.5                       0
    31   1      1.5081234295306725                      15                       0
    32   1      1.5100538313502554                    16.5                       0
    33   1      1.5115616592593066                      18                       0
    34   1      1.5125986308113779                    19.5                       0
    35   1      1.5132508818335404                      21                       0
    36   1      1.5136383872224102                    22.5                       0
    37   1      1.5138608441613395                      24                       0
    38   1      1.5139860432355303                    25.5                       0
    39   1      1.5140557199789102                      27                       0
    40   1      1.5140942552502015                    28.5                       0
    41   1      2.5000943177824335 -3.2870444444395976e-32                       0
    42   1      2.5001713883250161                     1.5                       0
    43   1      2.5003107418117758                       3                       0
    44   1      2.5005611399601575                     4.5                       0
    45   1      2.5010060538380161                       6                       0
    46   1      2.5017810646157557                     7.5                       0
    47   1      2.5030855666600802                       9                       0
    48   1      2.5051595097642223                    10.5                       0
    49   1      2.5081751655823257                      12                       0
    50   1      2.5120359692214906                    13.5                       0
    51   1      2.5162468590613423                      15                       0
    52   1      2.5201076627005077                    16.5                       0
    53   1      2.5231233185186106                      18                       0
    54   1      2.5251972616227532                    19.5                       0
    55   1      2.5265017636670777                      21                       0
    56   1      2.5272767744448172                    22.5                       0
    57   1      2.5277216883226754                      24                       0
    58   1      2.5279720864710571                    25.5                       0
    59   1      2.5281114399578168                      27                       0
    60   1      2.5281885105003998                    28.5                       0
    61   1      3.5001414766736496 -4.6018746228173071e-32                       0
    62   1      3.5002570824875234                     1.5                       0
    63   1      3.5004661127176631                       3                       0
    64   1      3.5008417099402354                     4.5                       0
    65   1      3.5015090807570228                       6                       0
    66   1      3.5026715969236322                     7.5                       0
    67   1       3.504628349990119                       9                       0
    68   1      3.5077392646463323                    10.5                       0
    69   1       3.512262748373487                      12                       0
    70   1      3.5180539538322351                    13.5                       0
    71   1      3.5243702885920123                      15                       0
    72   1      3.5301614940507604                    16.5                       0
    73   1      3.5346849777779146                      18                       0
    74   1      3.5377958924341284                    19.5                       0
    75   1      3.5397526455006152                      21                       0
    76   1      3.5409151616672245                    22.5                       0
    77   1       3.541582532484012                      24                       0
    78   1      3.5419581297065843                    25.5                       0
    79   1      3.5421671599367239                      27                       0
    80   1      3.5422827657505978                    28.5                       0
    81   1      4.5001886355648653 -5.9167048011950155e-32                       0
    82   1      4.5003427766500304                     1.5                       0
    83   1      4.5006214836235507                       3                       0
    84   1      4.5011222799203132                     4.5                       0
    85   1      4.5020121076760296                       6                       0
    86   1      4.5035621292315096                     7.5                       0
    87   1      4.5061711333201586                       9                       0
    88   1      4.5103190195284428                    10.5                       0
    89   1      4.5163503311646487                      12                       0
    90   1      4.5240719384429795                    13.5                       0
    91   1      4.5324937181226819                      15                       0
    92   1      4.5402153254010127                    16.5                       0
    93   1      4.5462466370372185                      18                       0
    94   1      4.5503945232455028                    19.5                       0
    95   1      4.5530035273341518                      21                       0
    96   1      4.5545535488896318                    22.5                       0
    97   1      4.5554433766453482                      24                       0
    98   1      4.5559441729421106                    25.5                       0
    99   1       4.556222879915631                      27                       0
   100   1      4.5563770210007961                    28.5                       0
   101   1      5.5002357944560814  -7.231534979572725e-32                       0
   102   1      5.5004284708125386                     1.5                       0
   103   1      5.5007768545294375                       3                       0
   104   1      5.5014028499003906                     4.5                       0
   105   1      5.5025151345950363                       6                       0
   106   1      5.5044526615393856                     7.5                       0
   107   1      5.5077139166501965                       9                       0
   108   1      5.5128987744105533                    10.5                       0
   109   1        5.52043791395581                      12                       0
   110   1      5.5300899230537226                    13.5                       0
   111   1      5.5406171476533519                      15                       0
   112   1      5.5502691567512645                    16.5                       0
   113   1       5.557808296296523                      18                       0
   114   1       5.562993154056878                    19.5                       0
   115   1      5.5662544091676889                      21                       0
   116   1        5.56819193611204                    22.5                       0
   117   1      5.5693042208066839                      24                       0
   118   1      5.5699302161776387                    25.5                       0
   119   1      5.5702785998945377                      27                       0
   120   1      5.5704712762509949                    28.5                       0
   121   1      6.5002829533472966 -8.5463651579504334e-32                       0
   122   1      6.5005141649750442                     1.5                       0
   123   1      6.5009322254353243                       3                       0
   124   1      6.5016834198804681                     4.5                       0
   125   1      6.5030181615140439                       6                       0
   126   1      6.5053431938472634                     7.5                       0
   127   1      6.5092566999802361                       9                       0
   128   1      6.5154785292926629                    10.5                       0
   129   1      6.5245254967469712                      12                       0
   130   1      6.5361079076644675                    13.5                       0
   131   1      6.5487405771840219                      15                       0
   132   1      6.5603229881015181                    16.5                       0
   133   1      6.5693699555558265                      18                       0
   134   1      6.5755917848682532                    19.5                       0
   135   1      6.5795052910012277                      21                       0
   136   1      6.5818303233344455                    22.5                       0
   137   1      6.5831650649680213                      24                       0
   138   1      6.5839162594131651                    25.5                       0
   139   1      6.5843343198734452                      27                       0
   140   1      6.5845655315011928                    28.5                       0
   141   1      7.5003301122385135  -9.861195336328144e-32                       0
   142   1      7.5005998591375516                     1.5                       0
   143   1      7.5010875963412111                       3                       0
   144   1      7.5019639898605472                     4.5                       0
   145   1      7.5035211884330497                       6                       0
   146   1      7.5062337261551395                     7.5                       0
   147   1      7.5107994833102758                       9                       0
   148   1      7.5180582841747725                    10.5                       0
   149   1      7.5286130795381325                      12                       0
   150   1      7.5421258922752124                    13.5                       0
   151   1      7.5568640067146919                      15                       0
   152   1        7.57037681945177                    16.5                       0
   153   1        7.58093161481513                      18                       0
   154   1      7.5881904156796285                    19.5                       0
   155   1      7.5927561728347648                      21                       0
   156   1      7.5954687105568528                    22.5                       0
   157   1       7.597025909129357                      24                       0
   158   1      7.5979023026486914                    25.5                       0
   159   1       7.598390039852351                      27                       0
   160   1      7.5986597867513908                    28.5                       0
   161   1      8.5003772711297287 -1.1176025514705852e-31                       0
   162   1      8.5006855533000589                     1.5                       0
   163   1      8.5012429672470997                       3                       0
   164   1      8.5022445598406247                     4.5                       0
   165   1      8.5040242153520573                       6                       0
   166   1      8.5071242584630156                     7.5                       0
   167   1      8.5123422666403137                       9                       0
   168   1      8.5206380390568821                    10.5                       0
   169   1      8.5327006623292938                      12                       0
   170   1      8.5481438768859555                    13.5                       0
   171   1       8.564987436245362                      15                       0
   172   1      8.5804306508020236                    16.5                       0
   173   1      8.5924932740744353                      18                       0
   174   1      8.6007890464910055                    19.5                       0
   175   1      8.6060070546683018                      21                       0
   176   1      8.6091070977792601                    22.5                       0
   177   1      8.6108867532906928                      24                       0
   178   1      8.6118883458842195                    25.5                       0
   179   1      8.6124457598312585                      27                       0
   180   1      8.6127540420015887                    28.5                       0
   181   1      9.5004244300209439 -1.2490855693083561e-31                       0
   182   1      9.5007712474625663                     1.5                       0
   183   1      9.5013983381529865                       3                       0
   184   1      9.5025251298207021                     4.5                       0
   185   1      9.5045272422710632                       6                       0
   186   1      9.5080147907708916                     7.5                       0
   187   1      9.5138850499703516                       9                       0
   188   1      9.5232177939389917                    10.5                       0
   189   1      9.5367882451204551                      12                       0
   190   1      9.5541618614966985                    13.5                       0
   191   1       9.573110865776032                      15                       0
   192   1      9.5904844821522754                    16.5                       0
   193   1      9.6040549333337388                      18                       0
   194   1       9.613387677302379                    19.5                       0
   195   1      9.6192579365018407                      21                       0
   196   1      9.6227454850016674                    22.5                       0
   197   1      9.6247475974520302                      24                       0
   198   1      9.6258743891197458                    25.5                       0
   199   1      9.6265014798101642                      27                       0
   200   1      9.6268482972517866                    28.5                       0
   201   1      10.500471588912161 -1.3805685871461271e-31                       0
   202   1      10.500856941625074                     1.5                       0
   203   1      10.501553709058873                       3                       0
   204   1      10.502805699800779                     4.5                       0
   205   1      10.505030269190071                       6                       0
   206   1      10.508905323078768                     7.5                       0
   207   1      10.515427833300391                       9                       0
   208   1      10.525797548821101                    10.5                       0
   209   1      10.540875827911616                      12                       0
   210   1      10.560179846107443                    13.5                       0
   211   1      10.581234295306702                      15                       0
   212   1      10.600538313502529                    16.5                       0
   213   1      10.615616592593044                      18                       0
   214   1      10.625986308113754                    19.5                       0
   215   1      10.632508818335378                      21                       0
   216   1      10.636383872224075                    22.5                       0
   217   1      10.638608441613366                      24                       0
   218   1      10.639860432355272                    25.5                       0
   219   1      10.640557199789072                      27                       0
   220   1      10.640942552501985                    28.5                       0
   221   1      11.500518747803376  -1.512051604983898e-31                       0
   222   1      11.500942635787581                     1.5                       0
   223   1       11.50170907996476                       3                       0
   224   1      11.503086269780857                     4.5                       0
   225   1      11.505533296109078                       6                       0
   226   1      11.509795855386646                     7.5                       0
   227   1      11.516970616630429                       9                       0
   228   1      11.528377303703213                    10.5                       0
   229   1      11.544963410702778                      12                       0
   230   1      11.566197830718187                    13.5                       0
   231   1      11.589357724837372                      15                       0
   232   1      11.610592144852781                    16.5                       0
   233   1      11.627178251852348                      18                       0
   234   1      11.638584938925129                    19.5                       0
   235   1      11.645759700168915                      21                       0
   236   1      11.650022259446482                    22.5                       0
   237   1      11.652469285774702                      24                       0
   238   1        11.6538464755908                    25.5                       0
   239   1      11.654612919767979                      27                       0
   240   1      11.655036807752182                    28.5                       0
   241   1      12.500565906694593 -1.6435346228216691e-31                       0
   242   1      12.501028329950088                     1.5                       0
   243   1      12.501864450870647                       3                       0
   244   1      12.503366839760936                     4.5                       0
   245   1      12.506036323028084                       6                       0
   246   1      12.510686387694522                     7.5                       0
   247   1      12.518513399960469                       9                       0
   248   1      12.530957058585322                    10.5                       0
   249   1      12.549050993493941                      12                       0
   250   1      12.572215815328931                    13.5                       0
   251   1      12.597481154368042                      15                       0
   252   1      12.620645976203035                    16.5                       0
   253   1      12.638739911111651                      18                       0
   254   1      12.651183569736505                    19.5                       0
   255   1      12.659010582002452                      21                       0
   256   1      12.663660646668889                    22.5                       0
   257   1      12.666330129936037                      24                       0
   258   1      12.667832518826327                    25.5                       0
   259   1      12.668668639746885                      27                       0
   260   1       12.66913106300238                    28.5                       0
   261   1      13.500613065585808 -1.7750176406594399e-31                       0
   262   1      13.501114024112596                     1.5                       0
   263   1      13.502019821776534                       3                       0
   264   1      13.503647409741014                     4.5                       0
   265   1      13.506539349947092                       6                       0
   266   1      13.511576920002399                     7.5                       0
   267   1      13.520056183290508                       9                       0
   268   1      13.533536813467432                    10.5                       0
   269   1      13.553138576285102                      12                       0
   270   1      13.578233799939676                    13.5                       0
   271   1      13.605604583898712                      15                       0
   272   1      13.630699807553286                    16.5                       0
   273   1      13.650301570370955                      18                       0
   274   1       13.66378220054788                    19.5                       0
   275   1      13.672261463835989                      21                       0
   276   1      13.677299033891297                    22.5                       0
   277   1      13.680190974097375                      24                       0
   278   1      13.681818562061853                    25.5                       0
   279   1      13.682724359725793                      27                       0
   280   1       13.68322531825258                    28.5                       0
   281   1      14.500660224477024 -1.9065006584972107e-31                       0
   282   1      14.501199718275103                     1.5                       0
   283   1      14.502175192682422                       3                       0
   284   1      14.503927979721091                     4.5                       0
   285   1      14.507042376866099                       6                       0
   286   1      14.512467452310275                     7.5                       0
   287   1      14.521598966620546                       9                       0
   288   1      14.536116568349543                    10.5                       0
   289   1      14.557226159076263                      12                       0
   290   1      14.584251784550419                    13.5                       0
   291   1      14.613728013429382                      15                       0
   292   1      14.640753638903538                    16.5                       0
   293   1       14.66186322963026                      18                       0
   294   1      14.676380831359255                    19.5                       0
   295   1      14.685512345669526                      21                       0
   296   1      14.690937421113704                    22.5                       0
   297   1      14.694051818258711                      24                       0
   298   1      14.695804605297381                    25.5                       0
   299   1        14.6967800797047                      27                       0
   300   1      14.697319573502778                    28.5                       0
   301   1       15.50070738336824 -2.0379836763349818e-31                       0
   302   1       15.50128541243761                     1.5                       0
   303   1      15.502330563588309                       3                       0
   304   1      15.504208549701168                     4.5                       0
   305   1      15.507545403785105                       6                       0
   306   1      15.513357984618152                     7.5                       0
   307   1      15.523141749950586                       9                       0
   308   1      15.538696323231653                    10.5                       0
   309   1      15.561313741867425                      12                       0
   310   1      15.590269769161164                    13.5                       0
   311   1      15.621851442960052                      15                       0
   312   1      15.650807470253792                    16.5                       0
   313   1      15.673424888889564                      18                       0
   314   1       15.68897946217063                    19.5                       0
   315   1      15.698763227503065                      21                       0
   316   1      15.704575808336111                    22.5                       0
   317   1      15.707912662420046                      24                       0
   318   1      15.709790648532907                    25.5                       0
   319   1      15.710835799683606                      27                       0
   320   1      15.711413828752976                    28.5                       0
   321   1      16.500754542259457 -2.1694666941727531e-31                       0
   322   1      16.501371106600118                     1.5                       0
   323   1      16.502485934494196                       3                       0
   324   1      16.504489119681249                     4.5                       0
   325   1      16.508048430704115                       6                       0
   326   1      16.514248516926031                     7.5                       0
   327   1      16.524684533280624                       9                       0
   328   1      16.541276078113764                    10.5                       0
   329   1      16.565401324658588                      12                       0
   330   1      16.596287753771911                    13.5                       0
   331   1       16.62997487249072                      15                       0
   332   1      16.660861301604044                    16.5                       0
   333   1      16.684986548148867                      18                       0
   334   1      16.701578092982004                    19.5                       0
   335   1        16.7120141093366                      21                       0
   336   1      16.718214195558517                    22.5                       0
   337   1      16.721773506581382                      24                       0
   338   1      16.723776691768432                    25.5                       0
   339   1      16.724891519662513                      27                       0
   340   1      16.725508084003174                    28.5                       0
   341   1      17.500801701150674 -2.3009497120105239e-31                       0
   342   1      17.501456800762625                     1.5                       0
   343   1      17.502641305400086                       3                       0
   344   1      17.504769689661327                     4.5                       0
   345   1       17.50855145762312                       6                       0
   346   1      17.515139049233905                     7.5                       0
   347   1      17.526227316610665                       9                       0
   348   1      17.543855832995874                    10.5                       0
   349   1      17.569488907449749                      12                       0
   350   1      17.602305738382654                    13.5                       0
   351   1       17.63809830202139                      15                       0
   352   1      17.670915132954296                    16.5                       0
   353   1      17.696548207408171                      18                       0
   354   1      17.714176723793379                    19.5                       0