(written by ASE)

2000 atoms
1 atom types

0.0                      22  xlo xhi
0.0                     100  ylo yhi
0.0                    0.25  zlo zhi

Atoms # atomic

     1   1                     0.5                       0                       0
     2   1     0.50000000000000011                       1                       0
     3   1     0.50000000000000011                       2                       0
     4   1     0.50000000000000022                       3                       0
     5   1     0.50000000000000022                       4                       0
     6   1     0.50000000000000033                       5                       0
     7   1     0.50000000000000044                       6                       0
     8   1     0.50000000000000044                       7                       0
     9   1     0.50000000000000056                       8                       0
    10   1     0.50000000000000056                       9                       0
    11   1     0.50000000000000056                      10                       0
    12   1     0.50000000000000067                      11                       0
    13   1     0.50000000000000067                      12                       0
    14   1     0.50000000000000078                      13                       0
    15   1     0.50000000000000089                      14                       0
    16   1     0.50000000000000089                      15                       0
    17   1       0.500000000000001                      16                       0
    18   1       0.500000000000001                      17                       0
    19   1     0.50000000000000111                      18                       0
    20   1     0.50000000000000122                      19                       0
    21   1     0.50000000000000122                      20                       0
    22   1     0.50000000000000133                      21                       0
    23   1     0.50000000000000133                      22                       0
    24   1     0.50000000000000144                      23                       0
    25   1     0.50000000000000155                      24                       0
    26   1     0.50000000000000155                      25                       0
    27   1     0.50000000000000155                      26                       0
    28   1     0.50000000000000167                      27                       0
    29   1     0.50000000000000167                      28                       0
    30   1     0.50000000000000178                      29                       0
    31   1     0.50000000000000178                      30                       0
    32   1     0.50000000000000189                      31                       0
    33   1       0.500000000000002                      32                       0
    34   1       0.500000000000002                      33                       0
    35   1     0.50000000000000211                      34                       0
    36   1     0.50000000000000211                      35                       0
    37   1     0.50000000000000222                      36                       0
    38   1     0.50000000000000233                      37                       0
    39   1     0.50000000000000233                      38                       0
    40   1     0.50000000000000244                      39                       0
    41   1     0.50000000000000244                      40                       0
    42   1     0.50000000000000255                      41                       0
    43   1     0.50000000000000255                      42                       0
    44   1     0.50000000000000255                      43                       0
    45   1     0.50000000000000278                      44                       0
    46   1     0.50000000000000289                      45                       0
    47   1     0.50000000000000289                      46                       0
    48   1       0.500000000000003                      47                       0
    49   1       0.500000000000003                      48                       0
    50   1     0.50000000000000311                      49                       0
    51   1     0.50000000000000344                      50                       0
    52   1     0.50000000000000344                      51                       0
    53   1     0.50000000000000355                      52                       0
    54   1     0.50000000000000355                      53                       0
    55   1     0.50000000000000366                      54                       0
    56   1     0.50000000000000377                      55                       0
    57   1     0.50000000000000377                      56                       0
    58   1     0.50000000000000389                      57                       0
    59   1     0.50000000000000389                      58                       0
    60   1     0.50000000000000389                      59                       0
    61   1       0.500000000000004                      60                       0
    62   1       0.500000000000004                      61                       0
    63   1     0.50000000000000411                      62                       0
    64   1     0.50000000000000422                      63                       0
    65   1     0.50000000000000422                      64                       0
    66   1     0.50000000000000433                      65                       0
    67   1     0.50000000000000433                      66                       0
    68   1     0.50000000000000444                      67                       0
    69   1     0.50000000000000455                      68                       0
    70   1     0.50000000000000466                      69                       0
    71   1     0.50000000000000477                      70                       0
    72   1     0.50000000000000477                      71                       0
    73   1     0.50000000000000488                      72                       0
    74   1       0.500000000000005                      73                       0
    75   1       0.500000000000005                      74                       0
    76   1       0.500000000000005                      75                       0
    77   1     0.50000000000000511                      76                       0
    78   1     0.50000000000000511                      77                       0
    79   1     0.50000000000000522                      78                       0
    80   1     0.50000000000000522                      79                       0
    81   1     0.50000000000000533                      80                       0
    82   1     0.50000000000000544                      81                       0
    83   1     0.50000000000000544                      82                       0
    84   1     0.50000000000000555                      83                       0
    85   1     0.50000000000000555                      84                       0
    86   1     0.50000000000000566                      85                       0
    87   1     0.50000000000000577                      86                       0
    88   1     0.50000000000000577                      87                       0
    89   1     0.50000000000000588                      88                       0
    90   1     0.50000000000000588                      89                       0
    91   1       0.500000000000006                      90                       0
    92   1       0.500000000000006                      91                       0
    93   1       0.500000000000006                      92                       0
    94   1     0.50000000000000611                      93                       0
    95   1     0.50000000000000622                      94                       0
    96   1     0.50000000000000622                      95                       0
    97   1     0.50000000000000633                      96                       0
    98   1     0.50000000000000633                      97                       0
    99   1     0.50000000000000644                      98                       0
   100   1     0.50000000000000655                      99                       0
   101   1                     1.5                       0                       0
   102   1                     1.5                       1                       0
   103   1      1.5000000000000002                       2                       0
   104   1      1.5000000000000002                       3                       0
   105   1      1.5000000000000002                       4                       0
   106   1      1.5000000000000002                       5                       0
   107   1      1.5000000000000004                       6                       0
   108   1      1.5000000000000004                       7                       0
   109   1      1.5000000000000004                       8                       0
   110   1      1.5000000000000004                       9                       0
   111   1      1.5000000000000007                      10                       0
   112   1      1.5000000000000007                      11                       0
   113   1      1.5000000000000007                      12                       0
   114   1      1.5000000000000009                      13                       0
   115   1      1.5000000000000009                      14                       0
   116   1      1.5000000000000009                      15                       0
   117   1      1.5000000000000009                      16                       0
   118   1      1.5000000000000011                      17                       0
   119   1      1.5000000000000011                      18                       0
   120   1      1.5000000000000011                      19                       0
   121   1      1.5000000000000013                      20                       0
   122   1      1.5000000000000013                      21                       0
   123   1      1.5000000000000013                      22                       0
   124   1      1.5000000000000013                      23                       0
   125   1      1.5000000000000016                      24                       0
   126   1      1.5000000000000016                      25                       0
   127   1      1.5000000000000016                      26                       0
   128   1      1.5000000000000016                      27                       0
   129   1      1.5000000000000018                      28                       0
   130   1      1.5000000000000018                      29                       0
   131   1      1.5000000000000018                      30                       0
   132   1       1.500000000000002                      31                       0
   133   1      1.5000000000000022                      32                       0
   134   1      1.5000000000000024                      33                       0
   135   1      1.5000000000000058                      34                       0
   136   1      1.5000000000000289                      35                       0
   137   1      1.5000000000002001                      36                       0
   138   1      1.5000000000014642                      37                       0
   139   1      1.5000000000108042                      38                       0
   140   1      1.5000000000798188                      39                       0
   141   1      1.5000000005897705                      40                       0
   142   1      1.5000000043578314                      41                       0
   143   1      1.5000000322002371                      42                       0
   144   1      1.5000002379288762                      43                       0
   145   1      1.5000017580444078                      44                       0
   146   1       1.500012988902738                      45                       0
   147   1      1.5000959001257292                      46                       0
   148   1      1.5007045106236119                      47                       0
   149   1      1.5049921971765889                      48                       0
   150   1      1.5283096233021078                      49                       0
   151   1      1.5769535345926355                      50                       0
   152   1      1.6002709607181544                      51                       0
   153   1      1.6045586472711313                      52                       0
   154   1      1.6051672577690141                      53                       0
   155   1      1.6052501689920051                      54                       0
   156   1      1.6052613998503356                      55                       0
   157   1       1.605262919965867                      56                       0
   158   1      1.6052631256945062                      57                       0
   159   1      1.6052631535369117                      58                       0
   160   1      1.6052631573049727                      59                       0
   161   1      1.6052631578149246                      60                       0
   162   1      1.6052631578839389                      61                       0
   163   1       1.605263157893279                      62                       0
   164   1      1.6052631578945431                      63                       0
   165   1      1.6052631578947145                      64                       0
   166   1      1.6052631578947376                      65                       0
   167   1      1.6052631578947407                      66                       0
   168   1      1.6052631578947412                      67                       0
   169   1      1.6052631578947414                      68                       0
   170   1      1.6052631578947414                      69                       0
   171   1      1.6052631578947414                      70                       0
   172   1      1.6052631578947416                      71                       0
   173   1      1.6052631578947416                      72                       0
   174   1      1.6052631578947416                      73                       0
   175   1      1.6052631578947416                      74                       0
   176   1      1.6052631578947421                      75                       0
   177   1      1.6052631578947421                      76                       0
   178   1      1.6052631578947421                      77                       0
   179   1      1.6052631578947423                      78                       0
   180   1      1.6052631578947423                      79                       0
   181   1      1.6052631578947423                      80                       0
   182   1      1.6052631578947423                      81                       0
   183   1      1.6052631578947425                      82                       0
   184   1      1.6052631578947425                      83                       0
   185   1      1.6052631578947425                      84                       0
   186   1      1.6052631578947425                      85                       0
   187   1      1.6052631578947427                      86                       0
   188   1      1.6052631578947427                      87                       0
   189   1      1.6052631578947427                      88                       0
   190   1      1.6052631578947429                      89                       0
   191   1      1.6052631578947429                      90                       0
   192   1      1.6052631578947429                      91                       0
   193   1      1.6052631578947429                      92                       0
   194   1      1.6052631578947432                      93                       0
   195   1      1.6052631578947432                      94                       0
   196   1      1.6052631578947432                      95                       0
   197   1      1.6052631578947432                      96                       0
   198   1      1.6052631578947434                      97                       0
   199   1      1.6052631578947434                      98                       0
   200   1      1.6052631578947434                      99                       0
   201   1                     2.5                       0                       0
   202   1                     2.5                       1                       0
   203   1                     2.5                       2                       0
   204   1                     2.5                       3                       0
   205   1      2.5000000000000004                       4                       0
   206   1      2.5000000000000004                       5                       0
   207   1      2.5000000000000004                       6                       0
   208   1      2.5000000000000004                       7                       0
   209   1      2.5000000000000004                       8                       0
   210   1      2.5000000000000004                       9                       0
   211   1      2.5000000000000004                      10                       0
   212   1      2.5000000000000009                      11                       0
   213   1      2.5000000000000009                      12                       0
   214   1      2.5000000000000009                      13                       0
   215   1      2.5000000000000009                      14                       0
   216   1      2.5000000000000009                      15                       0
   217   1      2.5000000000000009                      16                       0
   218   1      2.5000000000000009                      17                       0
   219   1      2.5000000000000009                      18                       0
   220   1      2.5000000000000013                      19                       0
   221   1      2.5000000000000013                      20                       0
   222   1      2.5000000000000013                      21                       0
   223   1      2.5000000000000013                      22                       0
   224   1      2.5000000000000013                      23                       0
   225   1      2.5000000000000013                      24                       0
   226   1      2.5000000000000013                      25                       0
   227   1      2.5000000000000018                      26                       0
   228   1      2.5000000000000018                      27                       0
   229   1      2.5000000000000018                      28                       0
   230   1      2.5000000000000018                      29                       0
   231   1      2.5000000000000018                      30                       0
   232   1      2.5000000000000018                      31                       0
   233   1      2.5000000000000018                      32                       0
   234   1      2.5000000000000031                      33                       0
   235   1      2.5000000000000098                      34                       0
   236   1       2.500000000000056                      35                       0
   237   1      2.5000000000003979                      36                       0
   238   1      2.5000000000029261                      37                       0
   239   1      2.5000000000216063                      38                       0
   240   1       2.500000000159635                      39                       0
   241   1      2.5000000011795387                      40                       0
   242   1      2.5000000087156606                      41                       0
   243   1      2.5000000644004716                      42                       0
   244   1      2.5000004758577496                      43                       0
   245   1       2.500003516088813                      44                       0
   246   1      2.5000259778054734                      45                       0
   247   1      2.5001918002514554                      46                       0
   248   1      2.5014090212472206                      47                       0
   249   1      2.5099843943531752                      48                       0
   250   1      2.5566192466042126                      49                       0
   251   1      2.6539070691852675                      50                       0
   252   1      2.7005419214363053                      51                       0
   253   1       2.709117294542259                      52                       0
   254   1      2.7103345155380243                      53                       0
   255   1      2.7105003379840062                      54                       0
   256   1      2.7105227997006676                      55                       0
   257   1      2.7105258399317305                      56                       0
   258   1      2.7105262513890089                      57                       0
   259   1      2.7105263070738195                      58                       0
   260   1      2.7105263146099414                      59                       0
   261   1      2.7105263156298447                      60                       0
   262   1      2.7105263157678734                      61                       0
   263   1       2.710526315786554                      62                       0
   264   1      2.7105263157890822                      63                       0
   265   1      2.7105263157894246                      64                       0
   266   1      2.7105263157894708                      65                       0
   267   1       2.710526315789477                      66                       0
   268   1      2.7105263157894779                      67                       0
   269   1      2.7105263157894779                      68                       0
   270   1      2.7105263157894788                      69                       0
   271   1      2.7105263157894788                      70                       0
   272   1      2.7105263157894788                      71                       0
   273   1      2.7105263157894788                      72                       0
   274   1      2.7105263157894788                      73                       0
   275   1      2.7105263157894788                      74                       0
   276   1      2.7105263157894788                      75                       0
   277   1      2.7105263157894788                      76                       0
   278   1      2.7105263157894788                      77                       0
   279   1      2.7105263157894788                      78                       0
   280   1      2.7105263157894788                      79                       0
   281   1      2.7105263157894788                      80                       0
   282   1      2.7105263157894788                      81                       0
   283   1      2.7105263157894788                      82                       0
   284   1      2.7105263157894788                      83                       0
   285   1      2.7105263157894797                      84                       0
   286   1      2.7105263157894797                      85                       0
   287   1      2.7105263157894797                      86                       0
   288   1      2.7105263157894797                      87                       0
   289   1      2.7105263157894797                      88                       0
   290   1      2.7105263157894797                      89                       0
   291   1      2.7105263157894797                      90                       0
   292   1      2.7105263157894797                      91                       0
   293   1      2.7105263157894797                      92                       0
   294   1      2.7105263157894797                      93                       0
   295   1      2.7105263157894797                      94                       0
   296   1      2.7105263157894797                      95                       0
   297   1      2.7105263157894797                      96                       0
   298   1      2.7105263157894797                      97                       0
   299   1      2.7105263157894806                      98                       0
   300   1      2.7105263157894806                      99                       0
   301   1                     3.5                       0                       0
   302   1                     3.5                       1                       0
   303   1                     3.5                       2                       0
   304   1                     3.5                       3                       0
   305   1      3.5000000000000004                       4                       0
   306   1      3.5000000000000004                       5                       0
   307   1      3.5000000000000004                       6                       0
   308   1      3.5000000000000004                       7                       0
   309   1      3.5000000000000004                       8                       0
   310   1      3.5000000000000004                       9                       0
   311   1      3.5000000000000004                      10                       0
   312   1      3.5000000000000009                      11                       0
   313   1      3.5000000000000009                      12                       0
   314   1      3.5000000000000009                      13                       0
   315   1      3.5000000000000009                      14                       0
   316   1      3.5000000000000009                      15                       0
   317   1      3.5000000000000009                      16                       0
   318   1      3.5000000000000009                      17                       0
   319   1      3.5000000000000009                      18                       0
   320   1      3.5000000000000013                      19                       0
   321   1      3.5000000000000013                      20                       0
   322   1      3.5000000000000013                      21                       0
   323   1      3.5000000000000013                      22                       0
   324   1      3.5000000000000013                      23                       0
   325   1      3.5000000000000013                      24                       0
   326   1      3.5000000000000013                      25                       0
   327   1      3.5000000000000018                      26                       0
   328   1      3.5000000000000018                      27                       0
   329   1      3.5000000000000018                      28                       0
   330   1      3.5000000000000018                      29                       0
   331   1      3.5000000000000018                      30                       0
   332   1      3.5000000000000018                      31                       0
   333   1      3.5000000000000018                      32                       0
   334   1      3.5000000000000036                      33                       0
   335   1      3.5000000000000133                      34                       0
   336   1      3.5000000000000826                      35                       0
   337   1       3.500000000000596                      36                       0
   338   1      3.5000000000043876                      37                       0
   339   1      3.5000000000324083                      38                       0
   340   1      3.5000000002394516                      39                       0
   341   1      3.5000000017693065                      40                       0
   342   1      3.5000000130734898                      41                       0
   343   1      3.5000000966007061                      42                       0
   344   1      3.5000007137866231                      43                       0
   345   1      3.5000052741332177                      44                       0
   346   1      3.5000389667082086                      45                       0
   347   1      3.5002877003771817                      46                       0
   348   1      3.5021135318708296                      47                       0
   349   1      3.5149765915297611                      48                       0
   350   1      3.5849288699063173                      49                       0
   351   1      3.7308606037778995                      50                       0
   352   1      3.8008128821544558                      51                       0
   353   1      3.8136759418133872                      52                       0
   354   1      3.8155017733070347                      53                       0