(written by ASE)

4000 atoms
1 atom types

0.0                     100  xlo xhi
0.0                      22  ylo yhi
0.0                    0.25  zlo zhi

Atoms # atomic

     1   1  6.8181818181818174e-17                    0.25                       0
     2   1     0.50000000000000011     0.76482310242948703                       0
     3   1  1.6818181818181817e-16      1.2775837355251278                       0
     4   1     0.50000000000000022      1.7944693072884608                       0
     5   1  1.6818181818181817e-16      2.3051674710502557                       0
     6   1     0.50000000000000022      2.8241155121474346                       0
     7   1  2.6818181818181817e-16       3.332751206575383                       0
     8   1     0.50000000000000033      3.8537617170064089                       0
     9   1  2.6818181818181817e-16      4.3603349421005113                       0
    10   1     0.50000000000000033      4.8834079218653823                       0
    11   1  3.6818181818181817e-16      5.3879186776256383                       0
    12   1     0.50000000000000044       5.913054126724357                       0
    13   1  4.6818181818181812e-16      6.4155024131507661                       0
    14   1     0.50000000000000044      6.9427003315833309                       0
    15   1  4.6818181818181812e-16      7.4430861486758939                       0
    16   1     0.50000000000000056      7.9723465364423047                       0
    17   1  5.6818181818181816e-16      8.4706698842010226                       0
    18   1     0.50000000000000056      9.0019927413012795                       0
    19   1  6.6818181818181821e-16      9.4982536197261496                       0
    20   1     0.50000000000000067      10.031638946160253                       0
    21   1  6.6818181818181821e-16      11.987954512511287                       0
    22   1     0.50000000000000078      12.483184156269234                       0
    23   1  7.6818181818181826e-16      13.015538248036414                       0
    24   1     0.50000000000000078      13.512830361128209                       0
    25   1  7.6818181818181826e-16      14.043121983561543                       0
    26   1     0.50000000000000089      14.542476565987183                       0
    27   1  8.6818181818181811e-16       15.07070571908667                       0
    28   1     0.50000000000000089      15.572122770846157                       0
    29   1  9.6818181818181815e-16      16.098289454611798                       0
    30   1       0.500000000000001      16.601768975705131                       0
    31   1  9.6818181818181815e-16      17.125873190136925                       0
    32   1       0.500000000000001      17.631415180564105                       0
    33   1  1.0681818181818182e-15      18.153456925662052                       0
    34   1     0.50000000000000111      18.661061385423078                       0
    35   1  1.0681818181818182e-15      19.181040661187179                       0
    36   1     0.50000000000000111      19.690707590282052                       0
    37   1  1.1681818181818181e-15       20.20862439671231                       0
    38   1     0.50000000000000122      20.720353795141026                       0
    39   1  1.2681818181818181e-15      21.236208132237437                       0
    40   1     0.50000000000000122                   21.75                       0
    41   1                       1                    0.25                       0
    42   1                     1.5     0.76701601168368383                       0
    43   1                       1      1.2817974891151167                       0
    44   1                     1.5      1.8010480350510512                       0
    45   1      1.0000000000000002      2.3135949782302334                       0
    46   1      1.5000000000000002       2.835080058418419                       0
    47   1      1.0000000000000002      3.3453924673453499                       0
    48   1      1.5000000000000002      3.8691120817857865                       0
    49   1      1.0000000000000002      4.3771899564604668                       0
    50   1      1.5000000000000002      4.9031441051531539                       0
    51   1      1.0000000000000002      5.4089874455755833                       0
    52   1      1.5000000000000002      5.9371761285205213                       0
    53   1      1.0000000000000004      6.4407849346906998                       0
    54   1      1.5000000000000004      6.9712081518878897                       0
    55   1      1.0000000000000004      7.4725824238058163                       0
    56   1      1.5000000000000004      8.0052401752552562                       0
    57   1      1.0000000000000004      8.5043799129209336                       0
    58   1      1.5000000000000004      9.0392721986226245                       0
    59   1      1.0000000000000004      9.5361774020360492                       0
    60   1      1.5000000000000004      10.073304221989993                       0
    61   1      1.0000000000000007      11.947923853406392                       0
    62   1      1.5000000000000007      12.443711789693692                       0
    63   1      1.0000000000000007      12.979721342521508                       0
    64   1      1.5000000000000007      13.477743813061059                       0
    65   1      1.0000000000000007      14.011518831636625                       0
    66   1      1.5000000000000007      14.511775836428427                       0
    67   1      1.0000000000000009      15.043316320751742                       0
    68   1      1.5000000000000009      15.545807859795794                       0
    69   1      1.0000000000000009      16.075113809866856                       0
    70   1      1.5000000000000009       16.57983988316316                       0
    71   1      1.0000000000000009      17.106911298981977                       0
    72   1      1.5000000000000009       17.61387190653053                       0
    73   1      1.0000000000000009      18.138708788097091                       0
    74   1      1.5000000000000009      18.647903929897897                       0
    75   1      1.0000000000000011      19.170506277212208                       0
    76   1      1.5000000000000011      19.681935953265263                       0
    77   1      1.0000000000000011      20.202303766327326                       0
    78   1      1.5000000000000011      20.715967976632633                       0
    79   1      1.0000000000000011      21.234101255442443                       0
    80   1      1.5000000000000011                   21.75                       0
    81   1                       2                    0.25                       0
    82   1                     2.5     0.76936105993836645                       0
    83   1                       2      1.2863429429512006                       0
    84   1                     2.5      1.8080831798150991                       0
    85   1                       2      2.3226858859024011                       0
    86   1                     2.5       2.846805299691832                       0
    87   1                       2      3.3590288288536012                       0
    88   1                     2.5       3.885527419568565                       0
    89   1      2.0000000000000004      4.3953717718048022                       0
    90   1      2.5000000000000004      4.9242495394452979                       0
    91   1      2.0000000000000004      5.4317147147560023                       0
    92   1      2.5000000000000004      5.9629716593220312                       0
    93   1      2.0000000000000004      6.4680576577072024                       0
    94   1      2.5000000000000004      7.0016937791987637                       0
    95   1      2.0000000000000004      7.5044006006584034                       0
    96   1      2.5000000000000004      8.0404158990754961                       0
    97   1      2.0000000000000004      8.5407435436096044                       0
    98   1      2.5000000000000004      9.0791380189522286                       0
    99   1      2.0000000000000004      9.5770864865608036                       0
   100   1      2.5000000000000004      10.117860138828963                       0
   101   1      2.0000000000000004      11.904742041963596                       0
   102   1      2.5000000000000004      12.401500921109404                       0
   103   1      2.0000000000000009      12.941084984914795                       0
   104   1      2.5000000000000009      13.440223040986137                       0
   105   1      2.0000000000000009      13.977427927865996                       0
   106   1      2.5000000000000009      14.478945160862869                       0
   107   1      2.0000000000000009      15.013770870817197                       0
   108   1      2.5000000000000009      15.517667280739603                       0
   109   1      2.0000000000000009      16.050113813768398                       0
   110   1      2.5000000000000009      16.556389400616336                       0
   111   1      2.0000000000000009      17.086456756719599                       0
   112   1      2.5000000000000009       17.59511152049307                       0
   113   1      2.0000000000000009        18.1227996996708                       0
   114   1      2.5000000000000009      18.633833640369801                       0
   115   1      2.0000000000000009      19.159142642621998                       0
   116   1      2.5000000000000009      19.672555760246535                       0
   117   1      2.0000000000000009      20.195485585573199                       0
   118   1      2.5000000000000009      20.711277880123266                       0
   119   1      2.0000000000000013        21.2318285285244                       0
   120   1      2.5000000000000013                   21.75                       0
   121   1                       3                    0.25                       0
   122   1                     3.5     0.77182346067632523                       0
   123   1                       3      1.2911602399884665                       0
   124   1                     3.5      1.8154703820289755                       0
   125   1                       3       2.332320479976933                       0
   126   1                     3.5       2.859117303381626                       0
   127   1                       3      3.3734807199653996                       0
   128   1                     3.5      3.9027642247342764                       0
   129   1      3.0000000000000004      4.4146409599538661                       0
   130   1      3.5000000000000004      4.9464111460869269                       0
   131   1      3.0000000000000004      5.4558011999423321                       0
   132   1      3.5000000000000004      5.9900580674395769                       0
   133   1      3.0000000000000004      6.4969614399307991                       0
   134   1      3.5000000000000004      7.0337049887922269                       0
   135   1      3.0000000000000004      7.5381216799192652                       0
   136   1      3.5000000000000004       8.077351910144877                       0
   137   1      3.0000000000000004      8.5792819199077321                       0
   138   1      3.5000000000000004       9.120998831497527                       0
   139   1      3.0000000000000004      9.6204421598961982                       0
   140   1      3.5000000000000004      10.164645752850179                       0
   141   1      3.0000000000000004      11.858977720109568                       0
   142   1      3.5000000000000004      12.357177707826146                       0
   143   1      3.0000000000000009      12.900137960098036                       0
   144   1      3.5000000000000009      13.400824629178796                       0
   145   1      3.0000000000000009      13.941298200086502                       0
   146   1      3.5000000000000009      14.444471550531448                       0
   147   1      3.0000000000000009      14.982458440074968                       0
   148   1      3.5000000000000009      15.488118471884098                       0
   149   1      3.0000000000000009      16.023618680063436                       0
   150   1      3.5000000000000009      16.531765393236746                       0
   151   1      3.0000000000000009        17.0647789200519                       0
   152   1      3.5000000000000009        17.5754123145894                       0
   153   1      3.0000000000000009      18.105939160040368                       0
   154   1      3.5000000000000009       18.61905923594205                       0
   155   1      3.0000000000000009      19.147099400028832                       0
   156   1      3.5000000000000009        19.6627061572947                       0
   157   1      3.0000000000000009        20.1882596400173                       0
   158   1      3.5000000000000009       20.70635307864735                       0
   159   1      3.0000000000000013      21.229419880005768                       0
   160   1      3.5000000000000013                   21.75                       0
   161   1                       4                    0.25                       0
   162   1                     4.5     0.77436004166774663                       0
   163   1                       4      1.2961708720705152                       0
   164   1                     4.5      1.8230801250032398                       0
   165   1                       4      2.3423417441410304                       0
   166   1                     4.5      2.8718002083387333                       0
   167   1                       4      3.3885126162115453                       0
   168   1                     4.5      3.9205202916742268                       0
   169   1                       4      4.4346834882820598                       0
   170   1                     4.5      4.9692403750097203                       0
   171   1                       4      5.4808543603525752                       0
   172   1                     4.5      6.0179604583452129                       0
   173   1                       4      6.5270252324230906                       0
   174   1                     4.5      7.0666805416807064                       0
   175   1                       4       7.573196104493606                       0
   176   1                     4.5      8.1154006250161999                       0
   177   1      4.0000000000000009      8.6193669765641197                       0
   178   1      4.5000000000000009      9.1641207083516925                       0
   179   1      4.0000000000000009      9.6655378486346351                       0
   180   1      4.5000000000000009      10.212840791687187                       0
   181   1      4.0000000000000009      11.811376715330107                       0
   182   1      4.5000000000000009      12.311519249980559                       0
   183   1      4.0000000000000009      12.857547587400621                       0
   184   1      4.5000000000000009      13.360239333316054                       0
   185   1      4.0000000000000009      13.903718459471136                       0
   186   1      4.5000000000000009      14.408959416651546                       0
   187   1      4.0000000000000009      14.949889331541652                       0
   188   1      4.5000000000000009      15.457679499987041                       0
   189   1      4.0000000000000009      15.996060203612167                       0
   190   1      4.5000000000000009      16.506399583322533                       0
   191   1      4.0000000000000009      17.042231075682682                       0
   192   1      4.5000000000000009      17.555119666658026                       0
   193   1      4.0000000000000009      18.088401947753198                       0
   194   1      4.5000000000000009      18.603839749993519                       0
   195   1      4.0000000000000009      19.134572819823713                       0
   196   1      4.5000000000000009      19.652559833329015                       0
   197   1      4.0000000000000009      20.180743691894229                       0
   198   1      4.5000000000000009      20.701279916664507                       0
   199   1      4.0000000000000009      21.226914563964744                       0
   200   1      4.5000000000000009                   21.75                       0
   201   1                       5                    0.25                       0
   202   1                     5.5     0.77692200961430469                       0
   203   1                       5      1.3012820512820513                       0
   204   1                     5.5       1.830766028842914                       0
   205   1                       5      2.3525641025641026                       0
   206   1                     5.5      2.8846100480715231                       0
   207   1                       5      3.4038461538461537                       0
   208   1                     5.5      3.9384540673001323                       0
   209   1                       5      4.4551282051282053                       0
   210   1                     5.5      4.9922980865287414                       0
   211   1                       5      5.5064102564102564                       0
   212   1                     5.5       6.046142105757351                       0
   213   1                       5      6.5576923076923075                       0
   214   1                     5.5      7.0999861249859597                       0
   215   1                       5      7.6089743589743595                       0
   216   1                     5.5      8.1538301442145702                       0
   217   1      5.0000000000000009      8.6602564102564106                       0
   218   1      5.5000000000000009       9.207674163443178                       0
   219   1      5.0000000000000009      9.7115384615384617                       0
   220   1      5.5000000000000009      10.261518182671788                       0
   221   1      5.0000000000000009      11.762820512820513                       0
   222   1      5.5000000000000009      12.265403826942517                       0
   223   1      5.0000000000000009      12.814102564102564                       0
   224   1      5.5000000000000009      13.319247846171127                       0
   225   1      5.0000000000000009      13.865384615384615                       0
   226   1      5.5000000000000009      14.373091865399735                       0
   227   1      5.0000000000000009      14.916666666666666                       0
   228   1      5.5000000000000009      15.426935884628344                       0
   229   1      5.0000000000000009      15.967948717948717                       0
   230   1      5.5000000000000009      16.480779903856956                       0
   231   1      5.0000000000000009       17.01923076923077                       0
   232   1      5.5000000000000009      17.534623923085562                       0
   233   1      5.0000000000000009      18.070512820512821                       0
   234   1      5.5000000000000009      18.588467942314171                       0
   235   1      5.0000000000000009      19.121794871794872                       0
   236   1      5.5000000000000009      19.642311961542781                       0
   237   1      5.0000000000000009      20.173076923076923                       0
   238   1      5.5000000000000009       20.69615598077139                       0
   239   1      5.0000000000000009      21.224358974358974                       0
   240   1      5.5000000000000009                   21.75                       0
   241   1                       6                    0.25                       0
   242   1                     6.5     0.77945859060572609                       0
   243   1                       6      1.3063932304935875                       0
   244   1                     6.5      1.8383757718171783                       0
   245   1                       6      2.3627864609871749                       0
   246   1                     6.5      2.8972929530286304                       0
   247   1                       6      3.4191796914807622                       0
   248   1                     6.5      3.9562101342400826                       0
   249   1                       6      4.4755729219743499                       0
   250   1                     6.5      5.0151273154515348                       0
   251   1                       6      5.5319661524679375                       0
   252   1                     6.5       6.074044496662987                       0
   253   1                       6      6.5883593829615252                       0
   254   1                     6.5      7.1329616778744391                       0
   255   1                       6       7.644752613455112                       0
   256   1                     6.5      8.1918788590858913                       0
   257   1      6.0000000000000009      8.7011458439486997                       0
   258   1      6.5000000000000009      9.2507960402973435                       0
   259   1      6.0000000000000009      9.7575390744422865                       0
   260   1      6.5000000000000009      10.309713221508796                       0
   261   1      6.0000000000000009      11.714264310310918                       0
   262   1      6.5000000000000009       12.21974536909693                       0
   263   1      6.0000000000000009      12.770657540804507                       0
   264   1      6.5000000000000009      13.278662550308383                       0
   265   1      6.0000000000000009      13.827050771298094                       0
   266   1      6.5000000000000009      14.337579731519835                       0
   267   1      6.0000000000000009       14.88344400179168                       0
   268   1      6.5000000000000009      15.396496912731287                       0
   269   1      6.0000000000000009      15.939837232285269                       0
   270   1      6.5000000000000009      16.455414093942739                       0
   271   1      6.0000000000000009      16.996230462778854                       0
   272   1      6.5000000000000009      17.514331275154191                       0
   273   1      6.0000000000000009      18.052623693272444                       0
   274   1      6.5000000000000009      18.573248456365643                       0
   275   1      6.0000000000000009      19.109016923766031                       0
   276   1      6.5000000000000009      19.632165637577096                       0
   277   1      6.0000000000000009      20.165410154259618                       0
   278   1      6.5000000000000009      20.691082818788548                       0
   279   1      6.0000000000000009      21.221803384753205                       0
   280   1      6.5000000000000009                   21.75                       0
   281   1                       7                    0.25                       0
   282   1                     7.5     0.78192099134368487                       0
   283   1                       7      1.3114038625756361                       0
   284   1                     7.5      1.8457629740310546                       0
   285   1                       7      2.3728077251512723                       0
   286   1                     7.5      2.9096049567184243                       0
   287   1                       7      3.4342115877269084                       0
   288   1                     7.5      3.9734469394057941                       0
   289   1                       7      4.4956154503025445                       0
   290   1                     7.5      5.0372889220931638                       0
   291   1                       7      5.5570193128781806                       0
   292   1                     7.5      6.1011309047805335                       0
   293   1                       7      6.6184231754538168                       0
   294   1                     7.5      7.1649728874679033                       0
   295   1                       7      7.6798270380294529                       0
   296   1                     7.5      8.2288148701552721                       0
   297   1      7.0000000000000009       8.741230900605089                       0
   298   1      7.5000000000000009      9.2926568528426419                       0
   299   1      7.0000000000000009      9.8026347631807251                       0
   300   1      7.5000000000000009      10.356498835530012                       0
   301   1      7.0000000000000009      11.666663305531458                       0
   302   1      7.5000000000000009      12.175422155813672                       0
   303   1      7.0000000000000009      12.728067168107094                       0
   304   1      7.5000000000000009      13.239264138501042                       0
   305   1      7.0000000000000009       13.78947103068273                       0
   306   1      7.5000000000000009      14.303106121188412                       0
   307   1      7.0000000000000009      14.850874893258366                       0
   308   1      7.5000000000000009      15.366948103875782                       0
   309   1      7.0000000000000009      15.912278755834002                       0
   310   1      7.5000000000000009       16.43079008656315                       0
   311   1      7.0000000000000009      16.973682618409637                       0
   312   1      7.5000000000000009      17.494632069250521                       0
   313   1      7.0000000000000009      18.035086480985274                       0
   314   1      7.5000000000000009      18.558474051937893                       0
   315   1      7.0000000000000009      19.096490343560909                       0
   316   1      7.5000000000000009      19.622316034625261                       0
   317   1      7.0000000000000009      20.157894206136547                       0
   318   1      7.5000000000000009      20.686158017312628                       0
   319   1      7.0000000000000009      21.219298068712181                       0
   320   1      7.5000000000000009                   21.75                       0
   321   1                       8                    0.25                       0
   322   1                     8.5     0.78426603959836749                       0
   323   1                       8      1.3162211596129021                       0
   324   1                     8.5      1.8527981187951026                       0
   325   1                       8      2.3824423192258042                       0
   326   1                     8.5      2.9213301979918374                       0
   327   1                       8      3.4486634788387063                       0
   328   1                     8.5      3.9898622771885726                       0
   329   1                       8      4.5148846384516084                       0
   330   1                     8.5      5.0583943563853078                       0
   331   1                       8      5.5811057980645105                       0
   332   1                     8.5      6.1269264355820425                       0
   333   1                       8      6.6473269576774126                       0
   334   1                     8.5      7.1954585147787773                       0
   335   1                       8      7.7135481172903146                       0
   336   1                     8.5      8.2639905939755121                       0
   337   1                       8      8.7797692769032167                       0
   338   1                     8.5      9.3325226731722477                       0
   339   1                       8      9.8459904365161197                       0
   340   1                     8.5      10.401054752368982                       0
   341   1                       8       11.62089898367743                       0
   342   1                     8.5      12.133211287229384                       0
   343   1                       8      12.687120143290333                       0
   344   1                     8.5       13.20174336642612                       0
   345   1                       8      13.753341302903234                       0
   346   1                     8.5      14.270275445622856                       0
   347   1                       8      14.819562462516137                       0
   348   1                     8.5       15.33880752481959                       0
   349   1                       8      15.885783622129038                       0
   350   1                     8.5      16.407339604016325                       0
   351   1      8.0000000000000018      16.952004781741941                       0
   352   1      8.5000000000000018      17.475871683213061                       0
   353   1      8.0000000000000018      18.018225941354842                       0
   354   1      8.5000000000000018      18.544403762409797                       0