(written by ASE)

40 atoms
1 atom types

0.0                      10  xlo xhi
0.0                       2  ylo yhi
0.0                    0.25  zlo zhi

Atoms # atomic

     1   1                       0                       0                       0
     2   1                     0.5                     0.5                       0
     3   1   6.123233995736766e-17                       1                       0
     4   1     0.50000000000000011                     1.5                       0
     5   1                       1                       0                       0
     6   1                     1.5                     0.5                       0
     7   1                       1                       1                       0
     8   1                     1.5                     1.5                       0
     9   1                       2                       0                       0
    10   1                     2.5                     0.5                       0
    11   1                       2                       1                       0
    12   1                     2.5                     1.5                       0
    13   1                       3                       0                       0
    14   1                     3.5                     0.5                       0
    15   1                       3                       1                       0
    16   1                     3.5                     1.5                       0
    17   1                       4                       0                       0
    18   1                     4.5                     0.5                       0
    19   1                       4                       1                       0
    20   1                     4.5                     1.5                       0
    21   1                       5                       0                       0
    22   1                     5.5                     0.5                       0
    23   1                       5                       1                       0
    24   1                     5.5                     1.5                       0
    25   1                       6                       0                       0
    26   1                     6.5                     0.5                       0
    27   1                       6                       1                       0
    28   1                     6.5                     1.5                       0
    29   1                       7                       0                       0
    30   1                     7.5                     0.5                       0
    31   1                       7                       1                       0
    32   1                     7.5                     1.5                       0
    33   1                       8                       0                       0
    34   1                     8.5                     0.5                       0
    35   1                       8                       1                       0
    36   1                     8.5                     1.5                       0
    37   1                       9                       0                       0
    38   1                     9.5                     0.5                       0
    39   1                       9                       1                       0
    40   1                     9.5                     1.5                       0
