(written by ASE)

2000 atoms
1 atom types

0.0                     100  xlo xhi
0.0                      30  ylo yhi
0.0                    0.25  zlo zhi

Atoms # atomic

     1   1                       0                       0                       0
     2   1  9.1848509936051484e-17                     1.5                       0
     3   1  1.8369701987210297e-16                       3                       0
     4   1  2.7554552980815448e-16                     4.5                       0
     5   1  3.6739403974420594e-16                       6                       0
     6   1   4.592425496802574e-16                     7.5                       0
     7   1  5.5109105961630896e-16                       9                       0
     8   1  6.4293956955236042e-16                    10.5                       0
     9   1  7.3478807948841188e-16                      12                       0
    10   1  8.2663658942446333e-16                    13.5                       0
    11   1  9.1848509936051479e-16                      15                       0
    12   1  1.0103336092965664e-15                    16.5                       0
    13   1  1.1021821192326179e-15                      18                       0
    14   1  1.1940306291686693e-15                    19.5                       0
    15   1  1.2858791391047208e-15                      21                       0
    16   1  1.3777276490407722e-15                    22.5                       0
    17   1  1.4695761589768238e-15                      24                       0
    18   1  1.5614246689128753e-15                    25.5                       0
    19   1  1.6532731788489267e-15                      27                       0
    20   1  1.7451216887849782e-15                    28.5                       0
    21   1                       1                       0                       0
    22   1                       1                     1.5                       0
    23   1      1.0000000000000002                       3                       0
    24   1      1.0000000000000002                     4.5                       0
    25   1      1.0000000000000004                       6                       0
    26   1      1.0000000000000004                     7.5                       0
    27   1      1.0000000000000004                       9                       0
    28   1      1.0000000000000007                    10.5                       0
    29   1      1.0000000000000007                      12                       0
    30   1      1.0000000000000009                    13.5                       0
    31   1      1.0000000000000009                      15                       0
    32   1      1.0000000000000011                    16.5                       0
    33   1      1.0000000000000011                      18                       0
    34   1      1.0000000000000011                    19.5                       0
    35   1      1.0000000000000013                      21                       0
    36   1      1.0000000000000013                    22.5                       0
    37   1      1.0000000000000016                      24                       0
    38   1      1.0000000000000016                    25.5                       0
    39   1      1.0000000000000016                      27                       0
    40   1      1.0000000000000018                    28.5                       0
    41   1                       2                       0                       0
    42   1                       2                     1.5                       0
    43   1                       2                       3                       0
    44   1      2.0000000000000004                     4.5                       0
    45   1      2.0000000000000004                       6                       0
    46   1      2.0000000000000004                     7.5                       0
    47   1      2.0000000000000004                       9                       0
    48   1      2.0000000000000004                    10.5                       0
    49   1      2.0000000000000009                      12                       0
    50   1      2.0000000000000009                    13.5                       0
    51   1      2.0000000000000009                      15                       0
    52   1      2.0000000000000009                    16.5                       0
    53   1      2.0000000000000009                      18                       0
    54   1      2.0000000000000013                    19.5                       0
    55   1      2.0000000000000013                      21                       0
    56   1      2.0000000000000013                    22.5                       0
    57   1      2.0000000000000013                      24                       0
    58   1      2.0000000000000018                    25.5                       0
    59   1      2.0000000000000018                      27                       0
    60   1      2.0000000000000018                    28.5                       0
    61   1                       3                       0                       0
    62   1                       3                     1.5                       0
    63   1                       3                       3                       0
    64   1      3.0000000000000004                     4.5                       0
    65   1      3.0000000000000004                       6                       0
    66   1      3.0000000000000004                     7.5                       0
    67   1      3.0000000000000004                       9                       0
    68   1      3.0000000000000004                    10.5                       0
    69   1      3.0000000000000009                      12                       0
    70   1      3.0000000000000009                    13.5                       0
    71   1      3.0000000000000009                      15                       0
    72   1      3.0000000000000009                    16.5                       0
    73   1      3.0000000000000009                      18                       0
    74   1      3.0000000000000013                    19.5                       0
    75   1      3.0000000000000013                      21                       0
    76   1      3.0000000000000013                    22.5                       0
    77   1      3.0000000000000013                      24                       0
    78   1      3.0000000000000018                    25.5                       0
    79   1      3.0000000000000018                      27                       0
    80   1      3.0000000000000018                    28.5                       0
    81   1                       4                       0                       0
    82   1                       4                     1.5                       0
    83   1                       4                       3                       0
    84   1                       4                     4.5                       0
    85   1                       4                       6                       0
    86   1      4.0000000000000009                     7.5                       0
    87   1      4.0000000000000009                       9                       0
    88   1      4.0000000000000009                    10.5                       0
    89   1      4.0000000000000009                      12                       0
    90   1      4.0000000000000009                    13.5                       0
    91   1      4.0000000000000009                      15                       0
    92   1      4.0000000000000009                    16.5                       0
    93   1      4.0000000000000009                      18                       0
    94   1      4.0000000000000009                    19.5                       0
    95   1      4.0000000000000009                      21                       0
    96   1      4.0000000000000018                    22.5                       0
    97   1      4.0000000000000018                      24                       0
    98   1      4.0000000000000018                    25.5                       0
    99   1      4.0000000000000018                      27                       0
   100   1      4.0000000000000018                    28.5                       0
   101   1                       5                       0                       0
   102   1                       5                     1.5                       0
   103   1                       5                       3                       0
   104   1                       5                     4.5                       0
   105   1                       5                       6                       0
   106   1      5.0000000000000009                     7.5                       0
   107   1      5.0000000000000009                       9                       0
   108   1      5.0000000000000009                    10.5                       0
   109   1      5.0000000000000009                      12                       0
   110   1      5.0000000000000009                    13.5                       0
   111   1      5.0000000000000009                      15                       0
   112   1      5.0000000000000009                    16.5                       0
   113   1      5.0000000000000009                      18                       0
   114   1      5.0000000000000009                    19.5                       0
   115   1      5.0000000000000009                      21                       0
   116   1      5.0000000000000018                    22.5                       0
   117   1      5.0000000000000018                      24                       0
   118   1      5.0000000000000018                    25.5                       0
   119   1      5.0000000000000018                      27                       0
   120   1      5.0000000000000018                    28.5                       0
   121   1                       6                       0                       0
   122   1                       6                     1.5                       0
   123   1                       6                       3                       0
   124   1                       6                     4.5                       0
   125   1                       6                       6                       0
   126   1      6.0000000000000009                     7.5                       0
   127   1      6.0000000000000009                       9                       0
   128   1      6.0000000000000009                    10.5                       0
   129   1      6.0000000000000009                      12                       0
   130   1      6.0000000000000009                    13.5                       0
   131   1      6.0000000000000009                      15                       0
   132   1      6.0000000000000009                    16.5                       0
   133   1      6.0000000000000009                      18                       0
   134   1      6.0000000000000009                    19.5                       0
   135   1      6.0000000000000009                      21                       0
   136   1      6.0000000000000018                    22.5                       0
   137   1      6.0000000000000018                      24                       0
   138   1      6.0000000000000018                    25.5                       0
   139   1      6.0000000000000018                      27                       0
   140   1      6.0000000000000018                    28.5                       0
   141   1                       7                       0                       0
   142   1                       7                     1.5                       0
   143   1                       7                       3                       0
   144   1                       7                     4.5                       0
   145   1                       7                       6                       0
   146   1      7.0000000000000009                     7.5                       0
   147   1      7.0000000000000009                       9                       0
   148   1      7.0000000000000009                    10.5                       0
   149   1      7.0000000000000009                      12                       0
   150   1      7.0000000000000009                    13.5                       0
   151   1      7.0000000000000009                      15                       0
   152   1      7.0000000000000009                    16.5                       0
   153   1      7.0000000000000009                      18                       0
   154   1      7.0000000000000009                    19.5                       0
   155   1      7.0000000000000009                      21                       0
   156   1      7.0000000000000018                    22.5                       0
   157   1      7.0000000000000018                      24                       0
   158   1      7.0000000000000018                    25.5                       0
   159   1      7.0000000000000018                      27                       0
   160   1      7.0000000000000018                    28.5                       0
   161   1                       8                       0                       0
   162   1                       8                     1.5                       0
   163   1                       8                       3                       0
   164   1                       8                     4.5                       0
   165   1                       8                       6                       0
   166   1                       8                     7.5                       0
   167   1                       8                       9                       0
   168   1                       8                    10.5                       0
   169   1                       8                      12                       0
   170   1                       8                    13.5                       0
   171   1      8.0000000000000018                      15                       0
   172   1      8.0000000000000018                    16.5                       0
   173   1      8.0000000000000018                      18                       0
   174   1      8.0000000000000018                    19.5                       0
   175   1      8.0000000000000018                      21                       0
   176   1      8.0000000000000018                    22.5                       0
   177   1      8.0000000000000018                      24                       0
   178   1      8.0000000000000018                    25.5                       0
   179   1      8.0000000000000018                      27                       0
   180   1      8.0000000000000018                    28.5                       0
   181   1                       9                       0                       0
   182   1                       9                     1.5                       0
   183   1                       9                       3                       0
   184   1                       9                     4.5                       0
   185   1                       9                       6                       0
   186   1                       9                     7.5                       0
   187   1                       9                       9                       0
   188   1                       9                    10.5                       0
   189   1                       9                      12                       0
   190   1                       9                    13.5                       0
   191   1      9.0000000000000018                      15                       0
   192   1      9.0000000000000018                    16.5                       0
   193   1      9.0000000000000018                      18                       0
   194   1      9.0000000000000018                    19.5                       0
   195   1      9.0000000000000018                      21                       0
   196   1      9.0000000000000018                    22.5                       0
   197   1      9.0000000000000018                      24                       0
   198   1      9.0000000000000018                    25.5                       0
   199   1      9.0000000000000018                      27                       0
   200   1      9.0000000000000018                    28.5                       0
   201   1                      10                       0                       0
   202   1                      10                     1.5                       0
   203   1                      10                       3                       0
   204   1                      10                     4.5                       0
   205   1                      10                       6                       0
   206   1                      10                     7.5                       0
   207   1                      10                       9                       0
   208   1                      10                    10.5                       0
   209   1                      10                      12                       0
   210   1                      10                    13.5                       0
   211   1      10.000000000000002                      15                       0
   212   1      10.000000000000002                    16.5                       0
   213   1      10.000000000000002                      18                       0
   214   1      10.000000000000002                    19.5                       0
   215   1      10.000000000000002                      21                       0
   216   1      10.000000000000002                    22.5                       0
   217   1      10.000000000000002                      24                       0
   218   1      10.000000000000002                    25.5                       0
   219   1      10.000000000000002                      27                       0
   220   1      10.000000000000002                    28.5                       0
   221   1                      11                       0                       0
   222   1                      11                     1.5                       0
   223   1                      11                       3                       0
   224   1                      11                     4.5                       0
   225   1                      11                       6                       0
   226   1                      11                     7.5                       0
   227   1                      11                       9                       0
   228   1                      11                    10.5                       0
   229   1                      11                      12                       0
   230   1                      11                    13.5                       0
   231   1      11.000000000000002                      15                       0
   232   1      11.000000000000002                    16.5                       0
   233   1      11.000000000000002                      18                       0
   234   1      11.000000000000002                    19.5                       0
   235   1      11.000000000000002                      21                       0
   236   1      11.000000000000002                    22.5                       0
   237   1      11.000000000000002                      24                       0
   238   1      11.000000000000002                    25.5                       0
   239   1      11.000000000000002                      27                       0
   240   1      11.000000000000002                    28.5                       0
   241   1                      12                       0                       0
   242   1                      12                     1.5                       0
   243   1                      12                       3                       0
   244   1                      12                     4.5                       0
   245   1                      12                       6                       0
   246   1                      12                     7.5                       0
   247   1                      12                       9                       0
   248   1                      12                    10.5                       0
   249   1                      12                      12                       0
   250   1                      12                    13.5                       0
   251   1      12.000000000000002                      15                       0
   252   1      12.000000000000002                    16.5                       0
   253   1      12.000000000000002                      18                       0
   254   1      12.000000000000002                    19.5                       0
   255   1      12.000000000000002                      21                       0
   256   1      12.000000000000002                    22.5                       0
   257   1      12.000000000000002                      24                       0
   258   1      12.000000000000002                    25.5                       0
   259   1      12.000000000000002                      27                       0
   260   1      12.000000000000002                    28.5                       0
   261   1                      13                       0                       0
   262   1                      13                     1.5                       0
   263   1                      13                       3                       0
   264   1                      13                     4.5                       0
   265   1                      13                       6                       0
   266   1                      13                     7.5                       0
   267   1                      13                       9                       0
   268   1                      13                    10.5                       0
   269   1                      13                      12                       0
   270   1                      13                    13.5                       0
   271   1      13.000000000000002                      15                       0
   272   1      13.000000000000002                    16.5                       0
   273   1      13.000000000000002                      18                       0
   274   1      13.000000000000002                    19.5                       0
   275   1      13.000000000000002                      21                       0
   276   1      13.000000000000002                    22.5                       0
   277   1      13.000000000000002                      24                       0
   278   1      13.000000000000002                    25.5                       0
   279   1      13.000000000000002                      27                       0
   280   1      13.000000000000002                    28.5                       0
   281   1                      14                       0                       0
   282   1                      14                     1.5                       0
   283   1                      14                       3                       0
   284   1                      14                     4.5                       0
   285   1                      14                       6                       0
   286   1                      14                     7.5                       0
   287   1                      14                       9                       0
   288   1                      14                    10.5                       0
   289   1                      14                      12                       0
   290   1                      14                    13.5                       0
   291   1      14.000000000000002                      15                       0
   292   1      14.000000000000002                    16.5                       0
   293   1      14.000000000000002                      18                       0
   294   1      14.000000000000002                    19.5                       0
   295   1      14.000000000000002                      21                       0
   296   1      14.000000000000002                    22.5                       0
   297   1      14.000000000000002                      24                       0
   298   1      14.000000000000002                    25.5                       0
   299   1      14.000000000000002                      27                       0
   300   1      14.000000000000002                    28.5                       0
   301   1                      15                       0                       0
   302   1                      15                     1.5                       0
   303   1                      15                       3                       0
   304   1                      15                     4.5                       0
   305   1                      15                       6                       0
   306   1                      15                     7.5                       0
   307   1                      15                       9                       0
   308   1                      15                    10.5                       0
   309   1                      15                      12                       0
   310   1                      15                    13.5                       0
   311   1      15.000000000000002                      15                       0
   312   1      15.000000000000002                    16.5                       0
   313   1      15.000000000000002                      18                       0
   314   1      15.000000000000002                    19.5                       0
   315   1      15.000000000000002                      21                       0
   316   1      15.000000000000002                    22.5                       0
   317   1      15.000000000000002                      24                       0
   318   1      15.000000000000002                    25.5                       0
   319   1      15.000000000000002                      27                       0
   320   1      15.000000000000002                    28.5                       0
   321   1                      16                       0                       0
   322   1                      16                     1.5                       0
   323   1                      16                       3                       0
   324   1                      16                     4.5                       0
   325   1                      16                       6                       0
   326   1                      16                     7.5                       0
   327   1                      16                       9                       0
   328   1                      16                    10.5                       0
   329   1                      16                      12                       0
   330   1                      16                    13.5                       0
   331   1                      16                      15                       0
   332   1                      16                    16.5                       0
   333   1                      16                      18                       0
   334   1                      16                    19.5                       0
   335   1                      16                      21                       0
   336   1                      16                    22.5                       0
   337   1                      16                      24                       0
   338   1                      16                    25.5                       0
   339   1                      16                      27                       0
   340   1                      16                    28.5                       0
   341   1                      17                       0                       0
   342   1                      17                     1.5                       0
   343   1                      17                       3                       0
   344   1                      17                     4.5                       0
   345   1                      17                       6                       0
   346   1                      17                     7.5                       0
   347   1                      17                       9                       0
   348   1                      17                    10.5                       0
   349   1                      17                      12                       0
   350   1                      17                    13.5                       0
   351   1                      17                      15                       0
   352   1                      17                    16.5                       0
   353   1                      17                      18                       0
   354   1                      17                    19.5                       0