(written by ASE)

2000 atoms
1 atom types

0.0                      22  xlo xhi
0.0                     100  ylo yhi
0.0                    0.25  zlo zhi

Atoms # atomic

     1   1                     0.5                       0                       0
     2   1     0.50000000000000011                       1                       0
     3   1     0.50000000000000011                       2                       0
     4   1     0.50000000000000022                       3                       0
     5   1     0.50000000000000022                       4                       0
     6   1     0.50000000000000033                       5                       0
     7   1     0.50000000000000044                       6                       0
     8   1     0.50000000000000044                       7                       0
     9   1     0.50000000000000056                       8                       0
    10   1     0.50000000000000056                       9                       0
    11   1     0.50000000000000056                      10                       0
    12   1     0.50000000000000067                      11                       0
    13   1     0.50000000000000067                      12                       0
    14   1     0.50000000000000078                      13                       0
    15   1     0.50000000000000089                      14                       0
    16   1     0.50000000000000089                      15                       0
    17   1       0.500000000000001                      16                       0
    18   1       0.500000000000001                      17                       0
    19   1     0.50000000000000111                      18                       0
    20   1     0.50000000000000122                      19                       0
    21   1     0.50000000000000122                      20                       0
    22   1     0.50000000000000133                      21                       0
    23   1     0.50000000000000133                      22                       0
    24   1     0.50000000000000144                      23                       0
    25   1     0.50000000000000155                      24                       0
    26   1     0.50000000000000155                      25                       0
    27   1     0.50000000000000155                      26                       0
    28   1     0.50000000000000167                      27                       0
    29   1     0.50000000000000167                      28                       0
    30   1     0.50000000000000178                      29                       0
    31   1     0.50000000000000178                      30                       0
    32   1     0.50000000000000189                      31                       0
    33   1       0.500000000000002                      32                       0
    34   1       0.500000000000002                      33                       0
    35   1     0.50000000000000211                      34                       0
    36   1     0.50000000000000211                      35                       0
    37   1     0.50000000000000222                      36                       0
    38   1     0.50000000000000233                      37                       0
    39   1     0.50000000000000233                      38                       0
    40   1     0.50000000000000244                      39                       0
    41   1     0.50000000000000244                      40                       0
    42   1     0.50000000000000255                      41                       0
    43   1     0.50000000000000255                      42                       0
    44   1     0.50000000000000255                      43                       0
    45   1     0.50000000000000278                      44                       0
    46   1     0.50000000000000289                      45                       0
    47   1     0.50000000000000289                      46                       0
    48   1     0.50000000000000311                      47                       0
    49   1     0.50000000000000311                      48                       0
    50   1     0.50000000000000322                      49                       0
    51   1     0.50000000000000333                      50                       0
    52   1     0.50000000000000333                      51                       0
    53   1     0.50000000000000344                      52                       0
    54   1     0.50000000000000355                      53                       0
    55   1     0.50000000000000366                      54                       0
    56   1     0.50000000000000377                      55                       0
    57   1     0.50000000000000377                      56                       0
    58   1     0.50000000000000389                      57                       0
    59   1     0.50000000000000389                      58                       0
    60   1     0.50000000000000389                      59                       0
    61   1       0.500000000000004                      60                       0
    62   1       0.500000000000004                      61                       0
    63   1     0.50000000000000411                      62                       0
    64   1     0.50000000000000422                      63                       0
    65   1     0.50000000000000422                      64                       0
    66   1     0.50000000000000433                      65                       0
    67   1     0.50000000000000433                      66                       0
    68   1     0.50000000000000444                      67                       0
    69   1     0.50000000000000455                      68                       0
    70   1     0.50000000000000455                      69                       0
    71   1     0.50000000000000466                      70                       0
    72   1     0.50000000000000466                      71                       0
    73   1     0.50000000000000477                      72                       0
    74   1       0.500000000000005                      73                       0
    75   1       0.500000000000005                      74                       0
    76   1       0.500000000000005                      75                       0
    77   1     0.50000000000000511                      76                       0
    78   1     0.50000000000000511                      77                       0
    79   1     0.50000000000000522                      78                       0
    80   1     0.50000000000000522                      79                       0
    81   1     0.50000000000000533                      80                       0
    82   1     0.50000000000000544                      81                       0
    83   1     0.50000000000000544                      82                       0
    84   1     0.50000000000000555                      83                       0
    85   1     0.50000000000000555                      84                       0
    86   1     0.50000000000000566                      85                       0
    87   1     0.50000000000000577                      86                       0
    88   1     0.50000000000000577                      87                       0
    89   1     0.50000000000000588                      88                       0
    90   1     0.50000000000000588                      89                       0
    91   1       0.500000000000006                      90                       0
    92   1       0.500000000000006                      91                       0
    93   1       0.500000000000006                      92                       0
    94   1     0.50000000000000611                      93                       0
    95   1     0.50000000000000622                      94                       0
    96   1     0.50000000000000622                      95                       0
    97   1     0.50000000000000633                      96                       0
    98   1     0.50000000000000633                      97                       0
    99   1     0.50000000000000644                      98                       0
   100   1     0.50000000000000655                      99                       0
   101   1      1.5000052812804929                       0                       0
   102   1       1.500006450498907                       1                       0
   103   1      1.5000078785502644                       2                       0
   104   1      1.5000096227235635                       3                       0
   105   1      1.5000117529832244                       4                       0
   106   1      1.5000143547712717                       5                       0
   107   1      1.5000175324278717                       6                       0
   108   1      1.5000214133661114                       7                       0
   109   1      1.5000261531665098                       8                       0
   110   1      1.5000319417926349                       9                       0
   111   1       1.500039011172698                      10                       0
   112   1      1.5000476444445523                      11                       0
   113   1      1.5000581872249399                      12                       0
   114   1      1.5000710613400674                      13                       0
   115   1      1.5000867815459376                      14                       0
   116   1      1.5001059758757993                      15                       0
   117   1       1.500129410381188                      16                       0
   118   1      1.5001580191849206                      17                       0
   119   1      1.5001929409413162                      18                       0
   120   1      1.5002355630022408                      19                       0
   121   1      1.5002875748171602                      20                       0
   122   1      1.5003510323481501                      21                       0
   123   1      1.5004284355490429                      22                       0
   124   1      1.5005228212263231                      23                       0
   125   1      1.5006378738412209                      24                       0
   126   1      1.5007780569836102                      25                       0
   127   1      1.5009487682792488                      26                       0
   128   1      1.5011565202769062                      27                       0
   129   1      1.5014091492450192                      28                       0
   130   1      1.5017160525654165                      29                       0
   131   1      1.5020884532351677                      30                       0
   132   1      1.5025396864650198                      31                       0
   133   1      1.5030854979738288                      32                       0
   134   1       1.503744335712911                      33                       0
   135   1      1.5045376057832742                      34                       0
   136   1      1.5054898487450989                      35                       0
   137   1      1.5066287743217912                      36                       0
   138   1      1.5079850715811858                      37                       0
   139   1      1.5095918906331449                      38                       0
   140   1      1.5114838759153302                      39                       0
   141   1      1.5136956288803181                      40                       0
   142   1      1.5162595015877429                      41                       0
   143   1      1.5192026867164614                      42                       0
   144   1      1.5225436859955228                      43                       0
   145   1      1.5262884099373588                      44                       0
   146   1      1.5304263681447392                      45                       0
   147   1      1.5349276029296697                      46                       0
   148   1      1.5397411230313867                      47                       0
   149   1      1.5447955245461442                      48                       0
   150   1      1.5500021907916937                      49                       0
   151   1      1.5552609671030497                      50                       0
   152   1      1.5604676333485989                      51                       0
   153   1      1.5655220348633563                      52                       0
   154   1      1.5703355549650737                      53                       0
   155   1       1.574836789750004                      54                       0
   156   1      1.5789747479573844                      55                       0
   157   1      1.5827194718992201                      56                       0
   158   1       1.586060471178282                      57                       0
   159   1      1.5890036563070002                      58                       0
   160   1      1.5915675290144251                      59                       0
   161   1      1.5937792819794132                      60                       0
   162   1       1.595671267261598                      61                       0
   163   1      1.5972780863135574                      62                       0
   164   1      1.5986343835729517                      63                       0
   165   1      1.5997733091496444                      64                       0
   166   1      1.6007255521114689                      65                       0
   167   1      1.6015188221818319                      66                       0
   168   1      1.6021776599209141                      67                       0
   169   1      1.6027234714297236                      68                       0
   170   1      1.6031747046595752                      69                       0
   171   1      1.6035471053293264                      70                       0
   172   1      1.6038540086497242                      71                       0
   173   1       1.604106637617837                      72                       0
   174   1      1.6043143896154946                      73                       0
   175   1      1.6044851009111329                      74                       0
   176   1      1.6046252840535227                      75                       0
   177   1      1.6047403366684203                      76                       0
   178   1      1.6048347223457005                      77                       0
   179   1      1.6049121255465935                      78                       0
   180   1      1.6049755830775831                      79                       0
   181   1      1.6050275948925026                      80                       0
   182   1      1.6050702169534272                      81                       0
   183   1      1.6051051387098227                      82                       0
   184   1      1.6051337475135554                      83                       0
   185   1      1.6051571820189441                      84                       0
   186   1      1.6051763763488058                      85                       0
   187   1       1.605192096554676                      86                       0
   188   1      1.6052049706698033                      87                       0
   189   1      1.6052155134501911                      88                       0
   190   1      1.6052241467220454                      89                       0
   191   1      1.6052312161021083                      90                       0
   192   1      1.6052370047282336                      91                       0
   193   1       1.605241744528632                      92                       0
   194   1      1.6052456254668719                      93                       0
   195   1      1.6052488031234717                      94                       0
   196   1       1.605251404911519                      95                       0
   197   1      1.6052535351711796                      96                       0
   198   1      1.6052552793444792                      97                       0
   199   1      1.6052567073958364                      98                       0
   200   1      1.6052578766142505                      99                       0
   201   1      2.5000105625609859                       0                       0
   202   1       2.500012900997814                       1                       0
   203   1      2.5000157571005284                       2                       0
   204   1      2.5000192454471266                       3                       0
   205   1      2.5000235059664488                       4                       0
   206   1      2.5000287095425433                       5                       0
   207   1       2.500035064855743                       6                       0
   208   1      2.5000428267322228                       7                       0
   209   1      2.5000523063330191                       8                       0
   210   1      2.5000638835852698                       9                       0
   211   1      2.5000780223453956                      10                       0
   212   1      2.5000952888891042                      11                       0
   213   1      2.5001163744498793                      12                       0
   214   1      2.5001421226801339                      13                       0
   215   1      2.5001735630918742                      14                       0
   216   1      2.5002119517515977                      15                       0
   217   1       2.500258820762375                      16                       0
   218   1      2.5003160383698404                      17                       0
   219   1       2.500385881882631                      18                       0
   220   1      2.5004711260044807                      19                       0
   221   1      2.5005751496343196                      20                       0
   222   1       2.500702064696299                      21                       0
   223   1       2.500856871098085                      22                       0
   224   1      2.5010456424526448                      23                       0
   225   1      2.5012757476824401                      24                       0
   226   1      2.5015561139672187                      25                       0
   227   1      2.5018975365584959                      26                       0
   228   1       2.502313040553811                      27                       0
   229   1      2.5028182984900367                      28                       0
   230   1      2.5034321051308313                      29                       0
   231   1      2.5041769064703341                      30                       0
   232   1      2.5050793729300374                      31                       0
   233   1      2.5061709959476559                      32                       0
   234   1      2.5074886714258202                      33                       0
   235   1      2.5090752115665467                      34                       0
   236   1      2.5109796974901952                      35                       0
   237   1      2.5132575486435806                      36                       0
   238   1      2.5159701431623693                      37                       0
   239   1      2.5191837812662881                      38                       0
   240   1      2.5229677518306577                      39                       0
   241   1      2.5273912577606339                      40                       0
   242   1      2.5325190031754836                      41                       0
   243   1      2.5384053734329197                      42                       0
   244   1       2.545087371991043                      43                       0
   245   1       2.552576819874715                      44                       0
   246   1      2.5608527362894757                      45                       0
   247   1      2.5698552058593362                      46                       0
   248   1      2.5794822460627702                      47                       0
   249   1      2.5895910490922853                      48                       0
   250   1      2.6000043815833842                      49                       0
   251   1      2.6105219342060959                      50                       0
   252   1      2.6209352666971943                      51                       0
   253   1      2.6310440697267095                      52                       0
   254   1      2.6406711099301434                      53                       0
   255   1      2.6496735795000044                      54                       0
   256   1      2.6579494959147656                      55                       0
   257   1      2.6654389437984372                      56                       0
   258   1      2.6721209423565604                      57                       0
   259   1      2.6780073126139965                      58                       0
   260   1      2.6831350580288462                      59                       0
   261   1       2.687558563958822                      60                       0
   262   1      2.6913425345231921                      61                       0
   263   1      2.6945561726271108                      62                       0
   264   1      2.6972687671458999                      63                       0
   265   1      2.6995466182992844                      64                       0
   266   1      2.7014511042229334                      65                       0
   267   1      2.7030376443636599                      66                       0
   268   1      2.7043553198418238                      67                       0
   269   1      2.7054469428594423                      68                       0
   270   1      2.7063494093191465                      69                       0
   271   1      2.7070942106586489                      70                       0
   272   1      2.7077080172994439                      71                       0
   273   1      2.7082132752356696                      72                       0
   274   1      2.7086287792309842                      73                       0
   275   1      2.7089702018222614                      74                       0
   276   1      2.7092505681070396                      75                       0
   277   1      2.7094806733368348                      76                       0
   278   1      2.7096694446913956                      77                       0
   279   1      2.7098242510931816                      78                       0
   280   1       2.709951166155161                      79                       0
   281   1      2.7100551897849998                      80                       0
   282   1      2.7101404339068491                      81                       0
   283   1      2.7102102774196397                      82                       0
   284   1      2.7102674950271046                      83                       0
   285   1      2.7103143640378824                      84                       0
   286   1      2.7103527526976059                      85                       0
   287   1      2.7103841931093462                      86                       0
   288   1      2.7104099413396008                      87                       0
   289   1       2.710431026900376                      88                       0
   290   1      2.7104482934440846                      89                       0
   291   1      2.7104624322042103                      90                       0
   292   1       2.710474009456461                      91                       0
   293   1      2.7104834890572578                      92                       0
   294   1      2.7104912509337371                      93                       0
   295   1      2.7104976062469368                      94                       0
   296   1      2.7105028098230317                      95                       0
   297   1      2.7105070703423531                      96                       0
   298   1      2.7105105586889513                      97                       0
   299   1      2.7105134147916665                      98                       0
   300   1      2.7105157532284947                      99                       0
   301   1      3.5000158438414792                       0                       0
   302   1      3.5000193514967211                       1                       0
   303   1       3.500023635650793                       2                       0
   304   1      3.5000288681706904                       3                       0
   305   1      3.5000352589496728                       4                       0
   306   1       3.500043064313815                       5                       0
   307   1      3.5000525972836143                       6                       0
   308   1      3.5000642400983337                       7                       0
   309   1      3.5000784594995284                       8                       0
   310   1      3.5000958253779042                       9                       0
   311   1      3.5001170335180931                      10                       0
   312   1       3.500142933333656                      11                       0
   313   1       3.500174561674819                      12                       0
   314   1      3.5002131840202009                      13                       0
   315   1      3.5002603446378107                      14                       0
   316   1      3.5003179276273961                      15                       0
   317   1      3.5003882311435621                      16                       0
   318   1      3.5004740575547597                      17                       0
   319   1      3.5005788228239458                      18                       0
   320   1      3.5007066890067202                      19                       0
   321   1      3.5008627244514785                      20                       0
   322   1      3.5010530970444478                      21                       0
   323   1      3.5012853066471266                      22                       0
   324   1      3.5015684636789666                      23                       0
   325   1      3.5019136215236593                      24                       0
   326   1      3.5023341709508271                      25                       0
   327   1      3.5028463048377434                      26                       0
   328   1      3.5034695608307151                      27                       0
   329   1      3.5042274477350537                      28                       0
   330   1      3.5051481576962464                      29                       0
   331   1         3.5062653597055                      30                       0
   332   1      3.5076190593950551                      31                       0
   333   1       3.509256493921483                      32                       0
   334   1      3.5112330071387294                      33                       0
   335   1      3.5136128173498191                      34                       0
   336   1       3.516469546235292                      35                       0
   337   1      3.5198863229653696                      36                       0
   338   1      3.5239552147435527                      37                       0
   339   1      3.5287756718994308                      38                       0
   340   1      3.5344516277459852                      39                       0
   341   1      3.5410868866409491                      40                       0
   342   1      3.5487785047632241                      41                       0
   343   1      3.5576080601493785                      42                       0
   344   1      3.5676310579865631                      43                       0
   345   1      3.5788652298120707                      44                       0
   346   1      3.5912791044342121                      45                       0
   347   1       3.604782808789003                      46                       0
   348   1      3.6192233690941538                      47                       0
   349   1      3.6343865736384267                      48                       0
   350   1      3.6500065723750748                      49                       0
   351   1      3.6657829013091421                      50                       0
   352   1      3.6814029000457902                      51                       0
   353   1      3.6965661045900626                      52                       0
   354   1      3.7110066648952138                      53                       0