(written by ASE)

4000 atoms
1 atom types

0.0                     100  xlo xhi
0.0      34.641016151377542  ylo yhi
0.0                    0.25  zlo zhi

Atoms # atomic

     1   1                       0                       0                       0
     2   1                     0.5      0.8660254037844386                       0
     3   1  1.0605752387249068e-16      1.7320508075688772                       0
     4   1     0.50000000000000011       2.598076211353316                       0
     5   1  2.1211504774498136e-16      3.4641016151377544                       0
     6   1     0.50000000000000022      4.3301270189221928                       0
     7   1  3.1817257161747205e-16       5.196152422706632                       0
     8   1     0.50000000000000033      6.0621778264910704                       0
     9   1  4.2423009548996272e-16      6.9282032302755088                       0
    10   1     0.50000000000000044      7.7942286340599471                       0
    11   1  5.3028761936245338e-16      8.6602540378443855                       0
    12   1     0.50000000000000056      9.5262794416288248                       0
    13   1   6.363451432349441e-16      10.392304845413264                       0
    14   1     0.50000000000000067      11.258330249197703                       0
    15   1  7.4240266710743472e-16      12.124355652982141                       0
    16   1     0.50000000000000078       12.99038105676658                       0
    17   1  8.4846019097992543e-16      13.856406460551018                       0
    18   1     0.50000000000000089      14.722431864335457                       0
    19   1  9.5451771485241615e-16      15.588457268119894                       0
    20   1       0.500000000000001      16.454482671904334                       0
    21   1  1.0605752387249068e-15      17.320508075688771                       0
    22   1     0.50000000000000111      18.186533479473209                       0
    23   1  1.1666327625973974e-15       19.05255888325765                       0
    24   1     0.50000000000000122      19.918584287042087                       0
    25   1  1.2726902864698882e-15      20.784609690826528                       0
    26   1     0.50000000000000122      21.650635094610966                       0
    27   1  1.3787478103423788e-15      22.516660498395403                       0
    28   1     0.50000000000000133      23.382685902179841                       0
    29   1  1.4848053342148694e-15      24.248711305964282                       0
    30   1     0.50000000000000144      25.114736709748719                       0
    31   1  1.5908628580873602e-15      25.980762113533157                       0
    32   1     0.50000000000000155      26.846787517317594                       0
    33   1  1.6969203819598509e-15      27.712812921102035                       0
    34   1     0.50000000000000167      28.578838324886473                       0
    35   1  1.8029779058323417e-15      29.444863728670914                       0
    36   1     0.50000000000000178      30.310889132455351                       0
    37   1  1.9090354297048323e-15      31.176914536239789                       0
    38   1     0.50000000000000189      32.042939940024226                       0
    39   1  2.0150929535773229e-15      32.908965343808667                       0
    40   1       0.500000000000002      33.774990747593108                       0
    41   1                       1                       0                       0
    42   1                     1.5      0.8660254037844386                       0
    43   1                       1      1.7320508075688772                       0
    44   1                     1.5       2.598076211353316                       0
    45   1      1.0000000000000002      3.4641016151377544                       0
    46   1      1.5000000000000002      4.3301270189221928                       0
    47   1      1.0000000000000002       5.196152422706632                       0
    48   1      1.5000000000000002      6.0621778264910704                       0
    49   1      1.0000000000000004      6.9282032302755088                       0
    50   1      1.5000000000000004      7.7942286340599471                       0
    51   1      1.0000000000000004      8.6602540378443855                       0
    52   1      1.5000000000000004      9.5262794416288248                       0
    53   1      1.0000000000000007      10.392304845413264                       0
    54   1      1.5000000000000007      11.258330249197703                       0
    55   1      1.0000000000000007      12.124355652982141                       0
    56   1      1.5000000000000007       12.99038105676658                       0
    57   1      1.0000000000000009      13.856406460551018                       0
    58   1      1.5000000000000009      14.722431864335457                       0
    59   1      1.0000000000000009      15.588457268119894                       0
    60   1      1.5000000000000009      16.454482671904334                       0
    61   1      1.0000000000000011      17.320508075688771                       0
    62   1      1.5000000000000011      18.186533479473209                       0
    63   1      1.0000000000000011       19.05255888325765                       0
    64   1      1.5000000000000011      19.918584287042087                       0
    65   1      1.0000000000000013      20.784609690826528                       0
    66   1      1.5000000000000013      21.650635094610966                       0
    67   1      1.0000000000000013      22.516660498395403                       0
    68   1      1.5000000000000013      23.382685902179841                       0
    69   1      1.0000000000000016      24.248711305964282                       0
    70   1      1.5000000000000016      25.114736709748719                       0
    71   1      1.0000000000000016      25.980762113533157                       0
    72   1      1.5000000000000016      26.846787517317594                       0
    73   1      1.0000000000000018      27.712812921102035                       0
    74   1      1.5000000000000018      28.578838324886473                       0
    75   1      1.0000000000000018      29.444863728670914                       0
    76   1      1.5000000000000018      30.310889132455351                       0
    77   1       1.000000000000002      31.176914536239789                       0
    78   1       1.500000000000002      32.042939940024226                       0
    79   1       1.000000000000002      32.908965343808667                       0
    80   1       1.500000000000002      33.774990747593108                       0
    81   1                       2                       0                       0
    82   1                     2.5      0.8660254037844386                       0
    83   1                       2      1.7320508075688772                       0
    84   1                     2.5       2.598076211353316                       0
    85   1                       2      3.4641016151377544                       0
    86   1                     2.5      4.3301270189221928                       0
    87   1      2.0000000000000004       5.196152422706632                       0
    88   1      2.5000000000000004      6.0621778264910704                       0
    89   1      2.0000000000000004      6.9282032302755088                       0
    90   1      2.5000000000000004      7.7942286340599471                       0
    91   1      2.0000000000000004      8.6602540378443855                       0
    92   1      2.5000000000000004      9.5262794416288248                       0
    93   1      2.0000000000000004      10.392304845413264                       0
    94   1      2.5000000000000004      11.258330249197703                       0
    95   1      2.0000000000000009      12.124355652982141                       0
    96   1      2.5000000000000009       12.99038105676658                       0
    97   1      2.0000000000000009      13.856406460551018                       0
    98   1      2.5000000000000009      14.722431864335457                       0
    99   1      2.0000000000000009      15.588457268119894                       0
   100   1      2.5000000000000009      16.454482671904334                       0
   101   1      2.0000000000000009      17.320508075688771                       0
   102   1      2.5000000000000009      18.186533479473209                       0
   103   1      2.0000000000000013       19.05255888325765                       0
   104   1      2.5000000000000013      19.918584287042087                       0
   105   1      2.0000000000000013      20.784609690826528                       0
   106   1      2.5000000000000013      21.650635094610966                       0
   107   1      2.0000000000000013      22.516660498395403                       0
   108   1      2.5000000000000013      23.382685902179841                       0
   109   1      2.0000000000000013      24.248711305964282                       0
   110   1      2.5000000000000013      25.114736709748719                       0
   111   1      2.0000000000000018      25.980762113533157                       0
   112   1      2.5000000000000018      26.846787517317594                       0
   113   1      2.0000000000000018      27.712812921102035                       0
   114   1      2.5000000000000018      28.578838324886473                       0
   115   1      2.0000000000000018      29.444863728670914                       0
   116   1      2.5000000000000018      30.310889132455351                       0
   117   1      2.0000000000000018      31.176914536239789                       0
   118   1      2.5000000000000018      32.042939940024226                       0
   119   1      2.0000000000000022      32.908965343808667                       0
   120   1      2.5000000000000022      33.774990747593108                       0
   121   1                       3                       0                       0
   122   1                     3.5      0.8660254037844386                       0
   123   1                       3      1.7320508075688772                       0
   124   1                     3.5       2.598076211353316                       0
   125   1                       3      3.4641016151377544                       0
   126   1                     3.5      4.3301270189221928                       0
   127   1      3.0000000000000004       5.196152422706632                       0
   128   1      3.5000000000000004      6.0621778264910704                       0
   129   1      3.0000000000000004      6.9282032302755088                       0
   130   1      3.5000000000000004      7.7942286340599471                       0
   131   1      3.0000000000000004      8.6602540378443855                       0
   132   1      3.5000000000000004      9.5262794416288248                       0
   133   1      3.0000000000000004      10.392304845413264                       0
   134   1      3.5000000000000004      11.258330249197703                       0
   135   1      3.0000000000000009      12.124355652982141                       0
   136   1      3.5000000000000009       12.99038105676658                       0
   137   1      3.0000000000000009      13.856406460551018                       0
   138   1      3.5000000000000009      14.722431864335457                       0
   139   1      3.0000000000000009      15.588457268119894                       0
   140   1      3.5000000000000009      16.454482671904334                       0
   141   1      3.0000000000000009      17.320508075688771                       0
   142   1      3.5000000000000009      18.186533479473209                       0
   143   1      3.0000000000000013       19.05255888325765                       0
   144   1      3.5000000000000013      19.918584287042087                       0
   145   1      3.0000000000000013      20.784609690826528                       0
   146   1      3.5000000000000013      21.650635094610966                       0
   147   1      3.0000000000000013      22.516660498395403                       0
   148   1      3.5000000000000013      23.382685902179841                       0
   149   1      3.0000000000000013      24.248711305964282                       0
   150   1      3.5000000000000013      25.114736709748719                       0
   151   1      3.0000000000000018      25.980762113533157                       0
   152   1      3.5000000000000018      26.846787517317594                       0
   153   1      3.0000000000000018      27.712812921102035                       0
   154   1      3.5000000000000018      28.578838324886473                       0
   155   1      3.0000000000000018      29.444863728670914                       0
   156   1      3.5000000000000018      30.310889132455351                       0
   157   1      3.0000000000000018      31.176914536239789                       0
   158   1      3.5000000000000018      32.042939940024226                       0
   159   1      3.0000000000000022      32.908965343808667                       0
   160   1      3.5000000000000022      33.774990747593108                       0
   161   1                       4                       0                       0
   162   1                     4.5      0.8660254037844386                       0
   163   1                       4      1.7320508075688772                       0
   164   1                     4.5       2.598076211353316                       0
   165   1                       4      3.4641016151377544                       0
   166   1                     4.5      4.3301270189221928                       0
   167   1                       4       5.196152422706632                       0
   168   1                     4.5      6.0621778264910704                       0
   169   1                       4      6.9282032302755088                       0
   170   1                     4.5      7.7942286340599471                       0
   171   1      4.0000000000000009      8.6602540378443855                       0
   172   1      4.5000000000000009      9.5262794416288248                       0
   173   1      4.0000000000000009      10.392304845413264                       0
   174   1      4.5000000000000009      11.258330249197703                       0
   175   1      4.0000000000000009      12.124355652982141                       0
   176   1      4.5000000000000009       12.99038105676658                       0
   177   1      4.0000000000000009      13.856406460551018                       0
   178   1      4.5000000000000009      14.722431864335457                       0
   179   1      4.0000000000000009      15.588457268119894                       0
   180   1      4.5000000000000009      16.454482671904334                       0
   181   1      4.0000000000000009      17.320508075688771                       0
   182   1      4.5000000000000009      18.186533479473209                       0
   183   1      4.0000000000000009       19.05255888325765                       0
   184   1      4.5000000000000009      19.918584287042087                       0
   185   1      4.0000000000000009      20.784609690826528                       0
   186   1      4.5000000000000009      21.650635094610966                       0
   187   1      4.0000000000000018      22.516660498395403                       0
   188   1      4.5000000000000018      23.382685902179841                       0
   189   1      4.0000000000000018      24.248711305964282                       0
   190   1      4.5000000000000018      25.114736709748719                       0
   191   1      4.0000000000000018      25.980762113533157                       0
   192   1      4.5000000000000018      26.846787517317594                       0
   193   1      4.0000000000000018      27.712812921102035                       0
   194   1      4.5000000000000018      28.578838324886473                       0
   195   1      4.0000000000000018      29.444863728670914                       0
   196   1      4.5000000000000018      30.310889132455351                       0
   197   1      4.0000000000000018      31.176914536239789                       0
   198   1      4.5000000000000018      32.042939940024226                       0
   199   1      4.0000000000000018      32.908965343808667                       0
   200   1      4.5000000000000018      33.774990747593108                       0
   201   1                       5                       0                       0
   202   1                     5.5      0.8660254037844386                       0
   203   1                       5      1.7320508075688772                       0
   204   1                     5.5       2.598076211353316                       0
   205   1                       5      3.4641016151377544                       0
   206   1                     5.5      4.3301270189221928                       0
   207   1                       5       5.196152422706632                       0
   208   1                     5.5      6.0621778264910704                       0
   209   1                       5      6.9282032302755088                       0
   210   1                     5.5      7.7942286340599471                       0
   211   1      5.0000000000000009      8.6602540378443855                       0
   212   1      5.5000000000000009      9.5262794416288248                       0
   213   1      5.0000000000000009      10.392304845413264                       0
   214   1      5.5000000000000009      11.258330249197703                       0
   215   1      5.0000000000000009      12.124355652982141                       0
   216   1      5.5000000000000009       12.99038105676658                       0
   217   1      5.0000000000000009      13.856406460551018                       0
   218   1      5.5000000000000009      14.722431864335457                       0
   219   1      5.0000000000000009      15.588457268119894                       0
   220   1      5.5000000000000009      16.454482671904334                       0
   221   1      5.0000000000000009      17.320508075688771                       0
   222   1      5.5000000000000009      18.186533479473209                       0
   223   1      5.0000000000000009       19.05255888325765                       0
   224   1      5.5000000000000009      19.918584287042087                       0
   225   1      5.0000000000000009      20.784609690826528                       0
   226   1      5.5000000000000009      21.650635094610966                       0
   227   1      5.0000000000000018      22.516660498395403                       0
   228   1      5.5000000000000018      23.382685902179841                       0
   229   1      5.0000000000000018      24.248711305964282                       0
   230   1      5.5000000000000018      25.114736709748719                       0
   231   1      5.0000000000000018      25.980762113533157                       0
   232   1      5.5000000000000018      26.846787517317594                       0
   233   1      5.0000000000000018      27.712812921102035                       0
   234   1      5.5000000000000018      28.578838324886473                       0
   235   1      5.0000000000000018      29.444863728670914                       0
   236   1      5.5000000000000018      30.310889132455351                       0
   237   1      5.0000000000000018      31.176914536239789                       0
   238   1      5.5000000000000018      32.042939940024226                       0
   239   1      5.0000000000000018      32.908965343808667                       0
   240   1      5.5000000000000018      33.774990747593108                       0
   241   1                       6                       0                       0
   242   1                     6.5      0.8660254037844386                       0
   243   1                       6      1.7320508075688772                       0
   244   1                     6.5       2.598076211353316                       0
   245   1                       6      3.4641016151377544                       0
   246   1                     6.5      4.3301270189221928                       0
   247   1                       6       5.196152422706632                       0
   248   1                     6.5      6.0621778264910704                       0
   249   1                       6      6.9282032302755088                       0
   250   1                     6.5      7.7942286340599471                       0
   251   1      6.0000000000000009      8.6602540378443855                       0
   252   1      6.5000000000000009      9.5262794416288248                       0
   253   1      6.0000000000000009      10.392304845413264                       0
   254   1      6.5000000000000009      11.258330249197703                       0
   255   1      6.0000000000000009      12.124355652982141                       0
   256   1      6.5000000000000009       12.99038105676658                       0
   257   1      6.0000000000000009      13.856406460551018                       0
   258   1      6.5000000000000009      14.722431864335457                       0
   259   1      6.0000000000000009      15.588457268119894                       0
   260   1      6.5000000000000009      16.454482671904334                       0
   261   1      6.0000000000000009      17.320508075688771                       0
   262   1      6.5000000000000009      18.186533479473209                       0
   263   1      6.0000000000000009       19.05255888325765                       0
   264   1      6.5000000000000009      19.918584287042087                       0
   265   1      6.0000000000000009      20.784609690826528                       0
   266   1      6.5000000000000009      21.650635094610966                       0
   267   1      6.0000000000000018      22.516660498395403                       0
   268   1      6.5000000000000018      23.382685902179841                       0
   269   1      6.0000000000000018      24.248711305964282                       0
   270   1      6.5000000000000018      25.114736709748719                       0
   271   1      6.0000000000000018      25.980762113533157                       0
   272   1      6.5000000000000018      26.846787517317594                       0
   273   1      6.0000000000000018      27.712812921102035                       0
   274   1      6.5000000000000018      28.578838324886473                       0
   275   1      6.0000000000000018      29.444863728670914                       0
   276   1      6.5000000000000018      30.310889132455351                       0
   277   1      6.0000000000000018      31.176914536239789                       0
   278   1      6.5000000000000018      32.042939940024226                       0
   279   1      6.0000000000000018      32.908965343808667                       0
   280   1      6.5000000000000018      33.774990747593108                       0
   281   1                       7                       0                       0
   282   1                     7.5      0.8660254037844386                       0
   283   1                       7      1.7320508075688772                       0
   284   1                     7.5       2.598076211353316                       0
   285   1                       7      3.4641016151377544                       0
   286   1                     7.5      4.3301270189221928                       0
   287   1                       7       5.196152422706632                       0
   288   1                     7.5      6.0621778264910704                       0
   289   1                       7      6.9282032302755088                       0
   290   1                     7.5      7.7942286340599471                       0
   291   1      7.0000000000000009      8.6602540378443855                       0
   292   1      7.5000000000000009      9.5262794416288248                       0
   293   1      7.0000000000000009      10.392304845413264                       0
   294   1      7.5000000000000009      11.258330249197703                       0
   295   1      7.0000000000000009      12.124355652982141                       0
   296   1      7.5000000000000009       12.99038105676658                       0
   297   1      7.0000000000000009      13.856406460551018                       0
   298   1      7.5000000000000009      14.722431864335457                       0
   299   1      7.0000000000000009      15.588457268119894                       0
   300   1      7.5000000000000009      16.454482671904334                       0
   301   1      7.0000000000000009      17.320508075688771                       0
   302   1      7.5000000000000009      18.186533479473209                       0
   303   1      7.0000000000000009       19.05255888325765                       0
   304   1      7.5000000000000009      19.918584287042087                       0
   305   1      7.0000000000000009      20.784609690826528                       0
   306   1      7.5000000000000009      21.650635094610966                       0
   307   1      7.0000000000000018      22.516660498395403                       0
   308   1      7.5000000000000018      23.382685902179841                       0
   309   1      7.0000000000000018      24.248711305964282                       0
   310   1      7.5000000000000018      25.114736709748719                       0
   311   1      7.0000000000000018      25.980762113533157                       0
   312   1      7.5000000000000018      26.846787517317594                       0
   313   1      7.0000000000000018      27.712812921102035                       0
   314   1      7.5000000000000018      28.578838324886473                       0
   315   1      7.0000000000000018      29.444863728670914                       0
   316   1      7.5000000000000018      30.310889132455351                       0
   317   1      7.0000000000000018      31.176914536239789                       0
   318   1      7.5000000000000018      32.042939940024226                       0
   319   1      7.0000000000000018      32.908965343808667                       0
   320   1      7.5000000000000018      33.774990747593108                       0
   321   1                       8                       0                       0
   322   1                     8.5      0.8660254037844386                       0
   323   1                       8      1.7320508075688772                       0
   324   1                     8.5       2.598076211353316                       0
   325   1                       8      3.4641016151377544                       0
   326   1                     8.5      4.3301270189221928                       0
   327   1                       8       5.196152422706632                       0
   328   1                     8.5      6.0621778264910704                       0
   329   1                       8      6.9282032302755088                       0
   330   1                     8.5      7.7942286340599471                       0
   331   1                       8      8.6602540378443855                       0
   332   1                     8.5      9.5262794416288248                       0
   333   1                       8      10.392304845413264                       0
   334   1                     8.5      11.258330249197703                       0
   335   1                       8      12.124355652982141                       0
   336   1                     8.5       12.99038105676658                       0
   337   1                       8      13.856406460551018                       0
   338   1                     8.5      14.722431864335457                       0
   339   1      8.0000000000000018      15.588457268119894                       0
   340   1      8.5000000000000018      16.454482671904334                       0
   341   1      8.0000000000000018      17.320508075688771                       0
   342   1      8.5000000000000018      18.186533479473209                       0
   343   1      8.0000000000000018       19.05255888325765                       0
   344   1      8.5000000000000018      19.918584287042087                       0
   345   1      8.0000000000000018      20.784609690826528                       0
   346   1      8.5000000000000018      21.650635094610966                       0
   347   1      8.0000000000000018      22.516660498395403                       0
   348   1      8.5000000000000018      23.382685902179841                       0
   349   1      8.0000000000000018      24.248711305964282                       0
   350   1      8.5000000000000018      25.114736709748719                       0
   351   1      8.0000000000000018      25.980762113533157                       0
   352   1      8.5000000000000018      26.846787517317594                       0
   353   1      8.0000000000000018      27.712812921102035                       0
   354   1      8.5000000000000018      28.578838324886473                       0