(written by ASE)

2000 atoms
1 atom types

0.0                     102  xlo xhi
0.0                      30  ylo yhi
0.0                    0.25  zlo zhi

Atoms # atomic

     1   1                     0.5                       0                       0
     2   1     0.50000000000000011                     1.5                       0
     3   1     0.50000000000000022                       3                       0
     4   1     0.50000000000000033                     4.5                       0
     5   1     0.50000000000000044                       6                       0
     6   1     0.50000000000000056                     7.5                       0
     7   1     0.50000000000000056                       9                       0
     8   1     0.50000000000000056                    10.5                       0
     9   1     0.50000000000000067                      12                       0
    10   1     0.50000000000000078                    13.5                       0
    11   1     0.50000000000000089                      15                       0
    12   1       0.500000000000001                    16.5                       0
    13   1     0.50000000000000111                      18                       0
    14   1     0.50000000000000122                    19.5                       0
    15   1     0.50000000000000133                      21                       0
    16   1     0.50000000000000144                    22.5                       0
    17   1     0.50000000000000155                      24                       0
    18   1     0.50000000000000155                    25.5                       0
    19   1     0.50000000000000167                      27                       0
    20   1     0.50000000000000167                    28.5                       0
    21   1      1.5011046730750697                       0                       0
    22   1      1.5014631613204348                     1.5                       0
    23   1       1.501926251816144                       3                       0
    24   1      1.5025162294583319                     4.5                       0
    25   1       1.503254726254073                       6                       0
    26   1      1.5041589974101206                     7.5                       0
    27   1      1.5052368707235932                       9                       0
    28   1       1.506481238400498                    10.5                       0
    29   1      1.5078658740616326                      12                       0
    30   1      1.5093448516092183                    13.5                       0
    31   1      1.5108571685928038                      15                       0
    32   1      1.5123361461403895                    16.5                       0
    33   1      1.5137207818015241                      18                       0
    34   1      1.5149651494784284                    19.5                       0
    35   1      1.5160430227919015                      21                       0
    36   1      1.5169472939479491                    22.5                       0
    37   1      1.5176857907436903                      24                       0
    38   1      1.5182757683858781                    25.5                       0
    39   1      1.5187388588815871                      27                       0
    40   1      1.5190973471269524                    28.5                       0
    41   1      2.5022093461501389                       0                       0
    42   1      2.5029263226408696                     1.5                       0
    43   1      2.5038525036322872                       3                       0
    44   1      2.5050324589166637                     4.5                       0
    45   1      2.5065094525081451                       6                       0
    46   1      2.5083179948202408                     7.5                       0
    47   1       2.510473741447186                       9                       0
    48   1      2.5129624768009946                    10.5                       0
    49   1      2.5157317481232644                      12                       0
    50   1      2.5186897032184352                    13.5                       0
    51   1      2.5217143371856068                      15                       0
    52   1      2.5246722922807776                    16.5                       0
    53   1      2.5274415636030469                      18                       0
    54   1      2.5299302989568559                    19.5                       0
    55   1      2.5320860455838012                      21                       0
    56   1      2.5338945878958969                    22.5                       0
    57   1      2.5353715814873787                      24                       0
    58   1      2.5365515367717548                    25.5                       0
    59   1      2.5374777177631729                      27                       0
    60   1      2.5381946942539031                    28.5                       0
    61   1      3.5033140192252086                       0                       0
    62   1      3.5043894839613041                     1.5                       0
    63   1      3.5057787554484308                       3                       0
    64   1      3.5075486883749951                     4.5                       0
    65   1      3.5097641787622176                       6                       0
    66   1      3.5124769922303609                     7.5                       0
    67   1      3.5157106121707788                       9                       0
    68   1      3.5194437152014917                    10.5                       0
    69   1      3.5235976221848966                      12                       0
    70   1      3.5280345548276522                    13.5                       0
    71   1      3.5325715057784102                      15                       0
    72   1      3.5370084384211657                    16.5                       0
    73   1      3.5411623454045702                      18                       0
    74   1      3.5448954484352835                    19.5                       0
    75   1      3.5481290683757014                      21                       0
    76   1      3.5508418818438447                    22.5                       0
    77   1      3.5530573722310672                      24                       0
    78   1      3.5548273051576316                    25.5                       0
    79   1      3.5562165766447582                      27                       0
    80   1      3.5572920413808538                    28.5                       0
    81   1      4.5044186923002787                       0                       0
    82   1      4.5058526452817391                     1.5                       0
    83   1      4.5077050072645743                       3                       0
    84   1      4.5100649178333265                     4.5                       0
    85   1      4.5130189050162901                       6                       0
    86   1      4.5166359896404815                     7.5                       0
    87   1      4.5209474828943721                       9                       0
    88   1      4.5259249536019892                    10.5                       0
    89   1      4.5314634962465288                      12                       0
    90   1      4.5373794064368695                    13.5                       0
    91   1      4.5434286743712136                      15                       0
    92   1      4.5493445845615543                    16.5                       0
    93   1       4.554883127206093                      18                       0
    94   1      4.5598605979137101                    19.5                       0
    95   1      4.5641720911676007                      21                       0
    96   1       4.567789175791793                    22.5                       0
    97   1      4.5707431629747557                      24                       0
    98   1      4.5731030735435079                    25.5                       0
    99   1       4.574955435526344                      27                       0
   100   1      4.5763893885078044                    28.5                       0
   101   1      5.5055233653753479                       0                       0
   102   1      5.5073158066021737                     1.5                       0
   103   1      5.5096312590807184                       3                       0
   104   1      5.5125811472916579                     4.5                       0
   105   1      5.5162736312703622                       6                       0
   106   1      5.5207949870506017                     7.5                       0
   107   1      5.5261843536179649                       9                       0
   108   1      5.5324061920024867                    10.5                       0
   109   1      5.5393293703081605                      12                       0
   110   1      5.5467242580460869                    13.5                       0
   111   1      5.5542858429640161                      15                       0
   112   1      5.5616807307019425                    16.5                       0
   113   1      5.5686039090076163                      18                       0
   114   1      5.5748257473921381                    19.5                       0
   115   1      5.5802151139595013                      21                       0
   116   1      5.5847364697397408                    22.5                       0
   117   1      5.5884289537184442                      24                       0
   118   1      5.5913788419293846                    25.5                       0
   119   1      5.5936942944079293                      27                       0
   120   1      5.5954867356347551                    28.5                       0
   121   1      6.5066280384504172                       0                       0
   122   1      6.5087789679226082                     1.5                       0
   123   1      6.5115575108968615                       3                       0
   124   1      6.5150973767499902                     4.5                       0
   125   1      6.5195283575244343                       6                       0
   126   1      6.5249539844607218                     7.5                       0
   127   1      6.5314212243415577                       9                       0
   128   1      6.5388874304029834                    10.5                       0
   129   1      6.5471952443697923                      12                       0
   130   1      6.5560691096553043                    13.5                       0
   131   1      6.5651430115568186                      15                       0
   132   1      6.5740168768423306                    16.5                       0
   133   1      6.5823246908091395                      18                       0
   134   1      6.5897908968705652                    19.5                       0
   135   1       6.596258136751401                      21                       0
   136   1      6.6016837636876886                    22.5                       0
   137   1      6.6061147444621326                      24                       0
   138   1      6.6096546103152614                    25.5                       0
   139   1      6.6124331532895146                      27                       0
   140   1      6.6145840827617057                    28.5                       0
   141   1      7.5077327115254864                       0                       0
   142   1      7.5102421292430428                     1.5                       0
   143   1      7.5134837627130056                       3                       0
   144   1      7.5176136062083216                     4.5                       0
   145   1      7.5227830837785072                       6                       0
   146   1       7.529112981870842                     7.5                       0
   147   1      7.5366580950651505                       9                       0
   148   1      7.5453686688034809                    10.5                       0
   149   1       7.555061118431424                      12                       0
   150   1      7.5654139612645208                    13.5                       0
   151   1       7.576000180149622                      15                       0
   152   1      7.5863530229827187                    16.5                       0
   153   1      7.5960454726106628                      18                       0
   154   1      7.6047560463489923                    19.5                       0
   155   1      7.6123011595433017                      21                       0
   156   1      7.6186310576356364                    22.5                       0
   157   1       7.623800535205822                      24                       0
   158   1      7.6279303787011381                    25.5                       0
   159   1         7.6311720121711                      27                       0
   160   1      7.6336814298886564                    28.5                       0
   161   1      8.5088373846005574                       0                       0
   162   1      8.5117052905634765                     1.5                       0
   163   1      8.5154100145291487                       3                       0
   164   1      8.5201298356666531                     4.5                       0
   165   1      8.5260378100325802                       6                       0
   166   1      8.5332719792809613                     7.5                       0
   167   1      8.5418949657887424                       9                       0
   168   1      8.5518499072039766                    10.5                       0
   169   1       8.562926992493054                      12                       0
   170   1      8.5747588128737373                    13.5                       0
   171   1      8.5868573487424271                      15                       0
   172   1      8.5986891691231087                    16.5                       0
   173   1       8.609766254412186                      18                       0
   174   1      8.6197211958274202                    19.5                       0
   175   1      8.6283441823352014                      21                       0
   176   1      8.6355783515835842                    22.5                       0
   177   1      8.6414863259495114                      24                       0
   178   1       8.646206147087014                    25.5                       0
   179   1      8.6499108710526862                      27                       0
   180   1       8.652778777015607                    28.5                       0
   181   1      9.5099420576756248                       0                       0
   182   1      9.5131684518839119                     1.5                       0
   183   1      9.5173362663452927                       3                       0
   184   1      9.5226460651249845                     4.5                       0
   185   1      9.5292925362866523                       6                       0
   186   1      9.5374309766910805                     7.5                       0
   187   1      9.5471318365123352                       9                       0
   188   1      9.5583311456044733                    10.5                       0
   189   1      9.5707928665546866                      12                       0
   190   1      9.5841036644829547                    13.5                       0
   191   1      9.5977145173352287                      15                       0
   192   1      9.6110253152634968                    16.5                       0
   193   1      9.6234870362137102                      18                       0
   194   1      9.6346863453058482                    19.5                       0
   195   1      9.6443872051271029                      21                       0
   196   1      9.6525256455315311                    22.5                       0
   197   1       9.659172116693199                      24                       0
   198   1      9.6644819154728907                    25.5                       0
   199   1      9.6686497299342715                      27                       0
   200   1      9.6718761241425586                    28.5                       0
   201   1      10.511046730750696                       0                       0
   202   1      10.514631613204347                     1.5                       0
   203   1      10.519262518161437                       3                       0
   204   1      10.525162294583316                     4.5                       0
   205   1      10.532547262540724                       6                       0
   206   1      10.541589974101202                     7.5                       0
   207   1      10.552368707235928                       9                       0
   208   1      10.564812384004972                    10.5                       0
   209   1      10.578658740616319                      12                       0
   210   1      10.593448516092172                    13.5                       0
   211   1      10.608571685928032                      15                       0
   212   1      10.623361461403885                    16.5                       0
   213   1      10.637207818015233                      18                       0
   214   1      10.649651494784276                    19.5                       0
   215   1      10.660430227919003                      21                       0
   216   1       10.66947293947948                    22.5                       0
   217   1      10.676857907436887                      24                       0
   218   1      10.682757683858767                    25.5                       0
   219   1      10.687388588815857                      27                       0
   220   1      10.690973471269508                    28.5                       0
   221   1      11.512151403825765                       0                       0
   222   1      11.516094774524781                     1.5                       0
   223   1      11.521188769977581                       3                       0
   224   1      11.527678524041647                     4.5                       0
   225   1      11.535801988794796                       6                       0
   226   1      11.545748971511323                     7.5                       0
   227   1      11.557605577959521                       9                       0
   228   1      11.571293622405468                    10.5                       0
   229   1       11.58652461467795                      12                       0
   230   1      11.602793367701389                    13.5                       0
   231   1      11.619428854520836                      15                       0
   232   1      11.635697607544273                    16.5                       0
   233   1      11.650928599816755                      18                       0
   234   1      11.664616644262702                    19.5                       0
   235   1      11.676473250710902                      21                       0
   236   1      11.686420233427427                    22.5                       0
   237   1      11.694543698180576                      24                       0
   238   1      11.701033452244644                    25.5                       0
   239   1      11.706127447697442                      27                       0
   240   1       11.71007081839646                    28.5                       0
   241   1      12.513256076900834                       0                       0
   242   1      12.517557935845216                     1.5                       0
   243   1      12.523115021793723                       3                       0
   244   1       12.53019475349998                     4.5                       0
   245   1      12.539056715048869                       6                       0
   246   1      12.549907968921442                     7.5                       0
   247   1      12.562842448683114                       9                       0
   248   1      12.577774860805965                    10.5                       0
   249   1      12.594390488739583                      12                       0
   250   1      12.612138219310607                    13.5                       0
   251   1      12.630286023113637                      15                       0
   252   1      12.648033753684661                    16.5                       0
   253   1      12.664649381618279                      18                       0
   254   1       12.67958179374113                    19.5                       0
   255   1      12.692516273502802                      21                       0
   256   1      12.703367527375375                    22.5                       0
   257   1      12.712229488924265                      24                       0
   258   1      12.719309220630521                    25.5                       0
   259   1      12.724866306579028                      27                       0
   260   1       12.72916816552341                    28.5                       0
   261   1      13.514360749975904                       0                       0
   262   1      13.519021097165652                     1.5                       0
   263   1      13.525041273609867                       3                       0
   264   1      13.532710982958312                     4.5                       0
   265   1      13.542311441302942                       6                       0
   266   1      13.554066966331561                     7.5                       0
   267   1      13.568079319406706                       9                       0
   268   1      13.584256099206462                    10.5                       0
   269   1      13.602256362801214                      12                       0
   270   1      13.621483070919822                    13.5                       0
   271   1      13.641143191706441                      15                       0
   272   1      13.660369899825049                    16.5                       0
   273   1      13.678370163419801                      18                       0
   274   1      13.694546943219557                    19.5                       0
   275   1      13.708559296294702                      21                       0
   276   1      13.720314821323322                    22.5                       0
   277   1      13.729915279667953                      24                       0
   278   1      13.737584989016398                    25.5                       0
   279   1      13.743605165460613                      27                       0
   280   1      13.748265512650361                    28.5                       0
   281   1      14.515465423050973                       0                       0
   282   1      14.520484258486086                     1.5                       0
   283   1      14.526967525426011                       3                       0
   284   1      14.535227212416643                     4.5                       0
   285   1      14.545566167557014                       6                       0
   286   1      14.558225963741682                     7.5                       0
   287   1      14.573316190130299                       9                       0
   288   1       14.59073733760696                    10.5                       0
   289   1      14.610122236862846                      12                       0
   290   1       14.63082792252904                    13.5                       0
   291   1      14.652000360299244                      15                       0
   292   1      14.672706045965437                    16.5                       0
   293   1      14.692090945221326                      18                       0
   294   1      14.709512092697985                    19.5                       0
   295   1      14.724602319086603                      21                       0
   296   1      14.737262115271271                    22.5                       0
   297   1      14.747601070411642                      24                       0
   298   1      14.755860757402274                    25.5                       0
   299   1      14.762344024342198                      27                       0
   300   1      14.767362859777311                    28.5                       0
   301   1      15.516570096126042                       0                       0
   302   1      15.521947419806521                     1.5                       0
   303   1      15.528893777242155                       3                       0
   304   1      15.537743441874975                     4.5                       0
   305   1      15.548820893811087                       6                       0
   306   1      15.562384961151801                     7.5                       0
   307   1      15.578553060853892                       9                       0
   308   1      15.597218576007457                    10.5                       0
   309   1      15.617988110924479                      12                       0
   310   1      15.640172774138257                    13.5                       0
   311   1      15.662857528892047                      15                       0
   312   1      15.685042192105827                    16.5                       0
   313   1      15.705811727022848                      18                       0
   314   1      15.724477242176413                    19.5                       0
   315   1      15.740645341878503                      21                       0
   316   1      15.754209409219218                    22.5                       0
   317   1       15.76528686115533                      24                       0
   318   1      15.774136525788151                    25.5                       0
   319   1      15.781082883223783                      27                       0
   320   1      15.786460206904263                    28.5                       0
   321   1      16.517674769201111                       0                       0
   322   1      16.523410581126953                     1.5                       0
   323   1      16.530820029058297                       3                       0
   324   1      16.540259671333306                     4.5                       0
   325   1       16.55207562006516                       6                       0
   326   1      16.566543958561923                     7.5                       0
   327   1      16.583789931577485                       9                       0
   328   1      16.603699814407953                    10.5                       0
   329   1      16.625853984986108                      12                       0
   330   1      16.649517625747475                    13.5                       0
   331   1      16.673714697484847                      15                       0
   332   1      16.697378338246214                    16.5                       0
   333   1      16.719532508824368                      18                       0
   334   1      16.739442391654837                    19.5                       0
   335   1      16.756688364670403                      21                       0
   336   1      16.771156703167165                    22.5                       0
   337   1      16.782972651899016                      24                       0
   338   1      16.792412294174024                    25.5                       0
   339   1      16.799821742105369                      27                       0
   340   1      16.805557554031211                    28.5                       0
   341   1       17.51877944227618                       0                       0
   342   1       17.52487374244739                     1.5                       0
   343   1      17.532746280874441                       3                       0
   344   1      17.542775900791639                     4.5                       0
   345   1      17.555330346319231                       6                       0
   346   1      17.570702955972042                     7.5                       0
   347   1      17.589026802301078                       9                       0
   348   1       17.61018105280845                    10.5                       0
   349   1      17.633719859047741                      12                       0
   350   1      17.658862477356692                    13.5                       0
   351   1      17.684571866077651                      15                       0
   352   1      17.709714484386602                    16.5                       0
   353   1      17.733253290625893                      18                       0
   354   1      17.754407541133265                    19.5                       0