(written by ASE)

4000 atoms
1 atom types

0.0                     100  xlo xhi
0.0                      23  ylo yhi
0.0                    0.25  zlo zhi

Atoms # atomic

     1   1  9.1304347826086951e-17                    0.25                       0
     2   1     0.50000000000000011     0.75000405726237651                       0
     3   1  1.9130434782608695e-16      1.2500073423624798                       0
     4   1     0.50000000000000022      1.7500121717871298                       0
     5   1  1.9130434782608695e-16      2.2500146847249596                       0
     6   1     0.50000000000000022      2.7500202863118828                       0
     7   1  2.9130434782608692e-16      3.2500220270874394                       0
     8   1     0.50000000000000033      3.7500284008366362                       0
     9   1  2.9130434782608692e-16      4.2500293694499192                       0
    10   1     0.50000000000000033      4.7500365153613897                       0
    11   1  3.9130434782608697e-16      5.2500367118123989                       0
    12   1     0.50000000000000044      5.7500446298861423                       0
    13   1  4.9130434782608692e-16      6.2500440541748787                       0
    14   1     0.50000000000000044      6.7500527444108958                       0
    15   1  4.9130434782608692e-16      7.2500513965373585                       0
    16   1     0.50000000000000056      7.7500608589356492                       0
    17   1  5.9130434782608697e-16      8.2500587388998383                       0
    18   1     0.50000000000000056      8.7500689734604027                       0
    19   1  6.9130434782608691e-16      9.2500660812623181                       0
    20   1     0.50000000000000067      9.7500770879851562                       0
    21   1  6.9130434782608691e-16      13.249930247556442                       0
    22   1     0.50000000000000078      13.749926969277221                       0
    23   1  7.9130434782608696e-16      14.249937589918922                       0
    24   1     0.50000000000000078      14.749935083801974                       0
    25   1  7.9130434782608696e-16      15.249944932281402                       0
    26   1     0.50000000000000089      15.749943198326728                       0
    27   1  8.9130434782608701e-16      16.249952274643881                       0
    28   1     0.50000000000000089      16.749951312851479                       0
    29   1  9.9130434782608706e-16      17.249959617006361                       0
    30   1       0.500000000000001      17.749959427376233                       0
    31   1  9.9130434782608706e-16      18.249966959368841                       0
    32   1       0.500000000000001      18.749967541900986                       0
    33   1  1.0913043478260871e-15      19.249974301731321                       0
    34   1     0.50000000000000111       19.74997565642574                       0
    35   1  1.0913043478260871e-15      20.249981644093801                       0
    36   1     0.50000000000000111      20.749983770950493                       0
    37   1   1.191304347826087e-15       21.24998898645628                       0
    38   1     0.50000000000000122      21.749991885475247                       0
    39   1   1.291304347826087e-15       22.24999632881876                       0
    40   1     0.50000000000000122                   22.75                       0
    41   1                       1                    0.25                       0
    42   1                     1.5     0.75000495549358814                       0
    43   1                       1      1.2500089678870248                       0
    44   1                     1.5      1.7500148664807649                       0
    45   1      1.0000000000000002      2.2500179357740495                       0
    46   1      1.5000000000000002      2.7500247774679414                       0
    47   1      1.0000000000000002      3.2500269036610745                       0
    48   1      1.5000000000000002      3.7500346884551181                       0
    49   1      1.0000000000000002       4.250035871548099                       0
    50   1      1.5000000000000002      4.7500445994422948                       0
    51   1      1.0000000000000002       5.250044839435124                       0
    52   1      1.5000000000000002      5.7500545104294716                       0
    53   1      1.0000000000000004       6.250053807322149                       0
    54   1      1.5000000000000004      6.7500644214166483                       0
    55   1      1.0000000000000004      7.2500627752091731                       0
    56   1      1.5000000000000004       7.750074332403825                       0
    57   1      1.0000000000000004      8.2500717430961981                       0
    58   1      1.5000000000000004      8.7500842433910009                       0
    59   1      1.0000000000000004       9.250080710983223                       0
    60   1      1.5000000000000004      9.7500941543781785                       0
    61   1      1.0000000000000007      13.249914805073264                       0
    62   1      1.5000000000000007       13.74991080111541                       0
    63   1      1.0000000000000007      14.249923772960289                       0
    64   1      1.5000000000000007      14.749920712102586                       0
    65   1      1.0000000000000007      15.249932740847314                       0
    66   1      1.5000000000000007      15.749930623089764                       0
    67   1      1.0000000000000009       16.24994170873434                       0
    68   1      1.5000000000000009      16.749940534076941                       0
    69   1      1.0000000000000009      17.249950676621363                       0
    70   1      1.5000000000000009      17.749950445064115                       0
    71   1      1.0000000000000009      18.249959644508387                       0
    72   1      1.5000000000000009      18.749960356051293                       0
    73   1      1.0000000000000009      19.249968612395413                       0
    74   1      1.5000000000000009      19.749970267038471                       0
    75   1      1.0000000000000011      20.249977580282437                       0
    76   1      1.5000000000000011      20.749980178025648                       0
    77   1      1.0000000000000011      21.249986548169463                       0
    78   1      1.5000000000000011      21.749990089012822                       0
    79   1      1.0000000000000011      22.249995516056487                       0
    80   1      1.5000000000000011                   22.75                       0
    81   1                       2                    0.25                       0
    82   1                     2.5     0.75000605256720854                       0
    83   1                       2      1.2500109532605859                       0
    84   1                     2.5      1.7500181577016256                       0
    85   1                       2      2.2500219065211713                       0
    86   1                     2.5      2.7500302628360429                       0
    87   1                       2      3.2500328597817578                       0
    88   1                     2.5        3.75004236797046                       0
    89   1      2.0000000000000004      4.2500438130423435                       0
    90   1      2.5000000000000004      4.7500544731048766                       0
    91   1      2.0000000000000004      5.2500547663029291                       0
    92   1      2.5000000000000004      5.7500665782392941                       0
    93   1      2.0000000000000004      6.2500657195635156                       0
    94   1      2.5000000000000004      6.7500786833737116                       0
    95   1      2.0000000000000004      7.2500766728241004                       0
    96   1      2.5000000000000004      7.7500907885081283                       0
    97   1      2.0000000000000004      8.2500876260846869                       0
    98   1      2.5000000000000004      8.7501028936425449                       0
    99   1      2.0000000000000004      9.2500985793452735                       0
   100   1      2.5000000000000004      9.7501149987769633                       0
   101   1      2.0000000000000004      13.249895944024434                       0
   102   1      2.5000000000000004      13.749891053790247                       0
   103   1      2.0000000000000009      14.249906897285021                       0
   104   1      2.5000000000000009      14.749903158924663                       0
   105   1      2.0000000000000009      15.249917850545607                       0
   106   1      2.5000000000000009       15.74991526405908                       0
   107   1      2.0000000000000009      16.249928803806192                       0
   108   1      2.5000000000000009      16.749927369193497                       0
   109   1      2.0000000000000009      17.249939757066777                       0
   110   1      2.5000000000000009      17.749939474327917                       0
   111   1      2.0000000000000009      18.249950710327365                       0
   112   1      2.5000000000000009       18.74995157946233                       0
   113   1      2.0000000000000009       19.24996166358795                       0
   114   1      2.5000000000000009       19.74996368459675                       0
   115   1      2.0000000000000009      20.249972616848535                       0
   116   1      2.5000000000000009      20.749975789731167                       0
   117   1      2.0000000000000009      21.249983570109123                       0
   118   1      2.5000000000000009      21.749987894865583                       0
   119   1      2.0000000000000013      22.249994523369708                       0
   120   1      2.5000000000000013                   22.75                       0
   121   1                       3                    0.25                       0
   122   1                     3.5     0.75000739249349979                       0
   123   1                       3      1.2500133781318103                       0
   124   1                     3.5      1.7500221774804998                       0
   125   1                       3      2.2500267562636207                       0
   126   1                     3.5      2.7500369624675001                       0
   127   1                       3      3.2500401343954315                       0
   128   1                     3.5      3.7500517474544997                       0
   129   1      3.0000000000000004      4.2500535125272414                       0
   130   1      3.5000000000000004      4.7500665324414992                       0
   131   1      3.0000000000000004      5.2500668906590526                       0
   132   1      3.5000000000000004      5.7500813174284993                       0
   133   1      3.0000000000000004       6.250080268790863                       0
   134   1      3.5000000000000004      6.7500961024154993                       0
   135   1      3.0000000000000004      7.2500936469226733                       0
   136   1      3.5000000000000004      7.7501108874024993                       0
   137   1      3.0000000000000004      8.2501070250544828                       0
   138   1      3.5000000000000004      8.7501256723894993                       0
   139   1      3.0000000000000004       9.250120403186294                       0
   140   1      3.5000000000000004      9.7501404573764994                       0
   141   1      3.0000000000000004        13.2498729077478                       0
   142   1      3.5000000000000004      13.749866935117002                       0
   143   1      3.0000000000000009      14.249886285879612                       0
   144   1      3.5000000000000009         14.749881720104                       0
   145   1      3.0000000000000009      15.249899664011421                       0
   146   1      3.5000000000000009         15.749896505091                       0
   147   1      3.0000000000000009      16.249913042143234                       0
   148   1      3.5000000000000009         16.749911290078                       0
   149   1      3.0000000000000009      17.249926420275042                       0
   150   1      3.5000000000000009      17.749926075064998                       0
   151   1      3.0000000000000009      18.249939798406853                       0
   152   1      3.5000000000000009         18.749940860052                       0
   153   1      3.0000000000000009      19.249953176538664                       0
   154   1      3.5000000000000009      19.749955645039002                       0
   155   1      3.0000000000000009      20.249966554670475                       0
   156   1      3.5000000000000009         20.749970430026                       0
   157   1      3.0000000000000009      21.249979932802283                       0
   158   1      3.5000000000000009      21.749985215012998                       0
   159   1      3.0000000000000013      22.249993310934094                       0
   160   1      3.5000000000000013                   22.75                       0
   161   1                       4                    0.25                       0
   162   1                     4.5      0.7500090290198369                       0
   163   1                       4      1.2500163397725075                       0
   164   1                     4.5      1.7500270870595109                       0
   165   1                       4       2.250032679545015                       0
   166   1                     4.5      2.7500451450991852                       0
   167   1                       4      3.2500490193175224                       0
   168   1                     4.5       3.750063203138859                       0
   169   1                       4      4.2500653590900299                       0
   170   1                     4.5      4.7500812611785328                       0
   171   1                       4      5.2500816988625374                       0
   172   1                     4.5      5.7500993192182071                       0
   173   1                       4      6.2500980386350449                       0
   174   1                     4.5      6.7501173772578813                       0
   175   1                       4      7.2501143784075524                       0
   176   1                     4.5      7.7501354352975547                       0
   177   1      4.0000000000000009      8.2501307181800598                       0
   178   1      4.5000000000000009      8.7501534933372298                       0
   179   1      4.0000000000000009      9.2501470579525673                       0
   180   1      4.5000000000000009      9.7501715513769032                       0
   181   1      4.0000000000000009      13.249844772161179                       0
   182   1      4.5000000000000009      13.749837477642934                       0
   183   1      4.0000000000000009      14.249861111933686                       0
   184   1      4.5000000000000009      14.749855535682608                       0
   185   1      4.0000000000000009      15.249877451706194                       0
   186   1      4.5000000000000009      15.749873593722281                       0
   187   1      4.0000000000000009      16.249893791478701                       0
   188   1      4.5000000000000009      16.749891651761956                       0
   189   1      4.0000000000000009      17.249910131251209                       0
   190   1      4.5000000000000009      17.749909709801628                       0
   191   1      4.0000000000000009      18.249926471023716                       0
   192   1      4.5000000000000009      18.749927767841303                       0
   193   1      4.0000000000000009      19.249942810796224                       0
   194   1      4.5000000000000009      19.749945825880978                       0
   195   1      4.0000000000000009      20.249959150568731                       0
   196   1      4.5000000000000009      20.749963883920653                       0
   197   1      4.0000000000000009      21.249975490341239                       0
   198   1      4.5000000000000009      21.749981941960325                       0
   199   1      4.0000000000000009      22.249991830113746                       0
   200   1      4.5000000000000009                   22.75                       0
   201   1                       5                    0.25                       0
   202   1                     5.5     0.75001102778314621                       0
   203   1                       5      1.2500199569739228                       0
   204   1                     5.5      1.7500330833494386                       0
   205   1                       5      2.2500399139478455                       0
   206   1                     5.5      2.7500551389157311                       0
   207   1                       5      3.2500598709217687                       0
   208   1                     5.5      3.7500771944820235                       0
   209   1                       5      4.2500798278956911                       0
   210   1                     5.5      4.7500992500483168                       0
   211   1                       5      5.2500997848696143                       0
   212   1                     5.5      5.7501213056146092                       0
   213   1                       5      6.2501197418435375                       0
   214   1                     5.5      6.7501433611809016                       0
   215   1                       5      7.2501396988174598                       0
   216   1                     5.5      7.7501654167471941                       0
   217   1      5.0000000000000009      8.2501596557913821                       0
   218   1      5.5000000000000009      8.7501874723134865                       0
   219   1      5.0000000000000009      9.2501796127653044                       0
   220   1      5.5000000000000009      9.7502095278797789                       0
   221   1      5.0000000000000009      13.249810408747733                       0
   222   1      5.5000000000000009      13.749801499903368                       0
   223   1      5.0000000000000009      14.249830365721657                       0
   224   1      5.5000000000000009      14.749823555469661                       0
   225   1      5.0000000000000009      15.249850322695579                       0
   226   1      5.5000000000000009      15.749845611035953                       0
   227   1      5.0000000000000009      16.249870279669501                       0
   228   1      5.5000000000000009      16.749867666602245                       0
   229   1      5.0000000000000009      17.249890236643424                       0
   230   1      5.5000000000000009       17.74988972216854                       0
   231   1      5.0000000000000009      18.249910193617346                       0
   232   1      5.5000000000000009       18.74991177773483                       0
   233   1      5.0000000000000009      19.249930150591268                       0
   234   1      5.5000000000000009      19.749933833301121                       0
   235   1      5.0000000000000009      20.249950107565194                       0
   236   1      5.5000000000000009      20.749955888867415                       0
   237   1      5.0000000000000009      21.249970064539117                       0
   238   1      5.5000000000000009      21.749977944433709                       0
   239   1      5.0000000000000009      22.249990021513039                       0
   240   1      5.5000000000000009                   22.75                       0
   241   1                       6                    0.25                       0
   242   1                     6.5     0.75001346893723952                       0
   243   1                       6      1.2500243748029389                       0
   244   1                     6.5      1.7500404068117188                       0
   245   1                       6      2.2500487496058774                       0
   246   1                     6.5      2.7500673446861983                       0
   247   1                       6      3.2500731244088166                       0
   248   1                     6.5      3.7500942825606769                       0
   249   1                       6      4.2500974992117548                       0
   250   1                     6.5      4.7501212204351564                       0
   251   1                       6      5.2501218740146944                       0
   252   1                     6.5      5.7501481583096359                       0
   253   1                       6      6.2501462488176331                       0
   254   1                     6.5      6.7501750961841154                       0
   255   1                       6      7.2501706236205719                       0
   256   1                     6.5       7.750202034058594                       0
   257   1      6.0000000000000009      8.2501949984235097                       0
   258   1      6.5000000000000009      8.7502289719330726                       0
   259   1      6.0000000000000009      9.2502193732264502                       0
   260   1      6.5000000000000009       9.750255909807553                       0
   261   1      6.0000000000000009      13.249768439372081                       0
   262   1      6.5000000000000009      13.749757559129687                       0
   263   1      6.0000000000000009       14.24979281417502                       0
   264   1      6.5000000000000009      14.749784497004166                       0
   265   1      6.0000000000000009      15.249817188977959                       0
   266   1      6.5000000000000009      15.749811434878646                       0
   267   1      6.0000000000000009      16.249841563780898                       0
   268   1      6.5000000000000009      16.749838372753125                       0
   269   1      6.0000000000000009      17.249865938583838                       0
   270   1      6.5000000000000009      17.749865310627605                       0
   271   1      6.0000000000000009      18.249890313386775                       0
   272   1      6.5000000000000009      18.749892248502082                       0
   273   1      6.0000000000000009      19.249914688189715                       0
   274   1      6.5000000000000009      19.749919186376562                       0
   275   1      6.0000000000000009      20.249939062992652                       0
   276   1      6.5000000000000009      20.749946124251043                       0
   277   1      6.0000000000000009      21.249963437795593                       0
   278   1      6.5000000000000009       21.74997306212552                       0
   279   1      6.0000000000000009       22.24998781259853                       0
   280   1      6.5000000000000009                   22.75                       0
   281   1                       7                    0.25                       0
   282   1                     7.5     0.75001645035936648                       0
   283   1                       7      1.2500297704072463                       0
   284   1                     7.5      1.7500493510780994                       0
   285   1                       7      2.2500595408144926                       0
   286   1                     7.5      2.7500822517968326                       0
   287   1                       7      3.2500893112217391                       0
   288   1                     7.5      3.7501151525155656                       0
   289   1                       7       4.250119081628986                       0
   290   1                     7.5      4.7501480532342981                       0
   291   1                       7      5.2501488520362312                       0
   292   1                     7.5      5.7501809539530315                       0
   293   1                       7      6.2501786224434781                       0
   294   1                     7.5      6.7502138546717649                       0
   295   1                       7       7.250208392850725                       0
   296   1                     7.5      7.7502467553904975                       0
   297   1      7.0000000000000009       8.250238163257972                       0
   298   1      7.5000000000000009        8.75027965610923                       0
   299   1      7.0000000000000009      9.2502679336652172                       0
   300   1      7.5000000000000009      9.7503125568279643                       0
   301   1      7.0000000000000009       13.24971718113116                       0
   302   1      7.5000000000000009      13.749703893531404                       0
   303   1      7.0000000000000009      14.249746951538405                       0
   304   1      7.5000000000000009      14.749736794250136                       0
   305   1      7.0000000000000009      15.249776721945652                       0
   306   1      7.5000000000000009      15.749769694968869                       0
   307   1      7.0000000000000009      16.249806492352899                       0
   308   1      7.5000000000000009      16.749802595687601                       0
   309   1      7.0000000000000009      17.249836262760144                       0
   310   1      7.5000000000000009      17.749835496406334                       0
   311   1      7.0000000000000009      18.249866033167393                       0
   312   1      7.5000000000000009      18.749868397125066                       0
   313   1      7.0000000000000009      19.249895803574638                       0
   314   1      7.5000000000000009      19.749901297843802                       0
   315   1      7.0000000000000009      20.249925573981884                       0
   316   1      7.5000000000000009      20.749934198562535                       0
   317   1      7.0000000000000009      21.249955344389129                       0
   318   1      7.5000000000000009      21.749967099281267                       0
   319   1      7.0000000000000009      22.249985114796377                       0
   320   1      7.5000000000000009                   22.75                       0
   321   1                       8                    0.25                       0
   322   1                     8.5     0.75002009156300731                       0
   323   1                       8      1.2500363600997419                       0
   324   1                     8.5      1.7500602746890221                       0
   325   1                       8      2.2500727201994835                       0
   326   1                     8.5      2.7501004578150368                       0
   327   1                       8      3.2501090802992261                       0
   328   1                     8.5      3.7501406409410514                       0
   329   1                       8      4.2501454403989678                       0
   330   1                     8.5      4.7501808240670664                       0
   331   1                       8      5.2501818004987095                       0
   332   1                     8.5      5.7502210071930815                       0
   333   1                       8      6.2502181605984513                       0
   334   1                     8.5      6.7502611903190957                       0
   335   1                       8       7.250254520698193                       0
   336   1                     8.5      7.7503013734451098                       0
   337   1                       8      8.2502908807979356                       0
   338   1                     8.5      8.7503415565711258                       0
   339   1                       8      9.2503272408976773                       0
   340   1                     8.5      9.7503817396971399                       0
   341   1                       8      13.249654579052452                       0
   342   1                     8.5      13.749638351865867                       0
   343   1                       8      14.249690939152194                       0
   344   1                     8.5      14.749678534991883                       0
   345   1                       8      15.249727299251935                       0
   346   1                     8.5      15.749718718117897                       0
   347   1                       8      16.249763659351679                       0
   348   1                     8.5      16.749758901243911                       0
   349   1                       8       17.24980001945142                       0
   350   1                     8.5      17.749799084369926                       0
   351   1      8.0000000000000018      18.249836379551162                       0
   352   1      8.5000000000000018       18.74983926749594                       0
   353   1      8.0000000000000018      19.249872739650904                       0
   354   1      8.5000000000000018      19.749879450621954                       0