(written by ASE)

2000 atoms
1 atom types

0.0                      20  xlo xhi
0.0                     100  ylo yhi
0.0                    0.25  zlo zhi

Atoms # atomic

     1   1                       0                       0                       0
     2   1   6.123233995736766e-17                       1                       0
     3   1  1.2246467991473532e-16                       2                       0
     4   1  1.8369701987210297e-16                       3                       0
     5   1  2.4492935982947064e-16                       4                       0
     6   1  3.0616169978683831e-16                       5                       0
     7   1  3.6739403974420594e-16                       6                       0
     8   1  4.2862637970157361e-16                       7                       0
     9   1  4.8985871965894128e-16                       8                       0
    10   1  5.5109105961630896e-16                       9                       0
    11   1  6.1232339957367663e-16                      10                       0
    12   1   6.735557395310443e-16                      11                       0
    13   1  7.3478807948841188e-16                      12                       0
    14   1  7.9602041944577955e-16                      13                       0
    15   1  8.5725275940314722e-16                      14                       0
    16   1  9.1848509936051499e-16                      15                       0
    17   1  9.7971743931788257e-16                      16                       0
    18   1  1.0409497792752501e-15                      17                       0
    19   1  1.1021821192326179e-15                      18                       0
    20   1  1.1634144591899855e-15                      19                       0
    21   1  1.2246467991473533e-15                      20                       0
    22   1  1.2858791391047208e-15                      21                       0
    23   1  1.3471114790620886e-15                      22                       0
    24   1  1.4083438190194562e-15                      23                       0
    25   1  1.4695761589768238e-15                      24                       0
    26   1  1.5308084989341915e-15                      25                       0
    27   1  1.5920408388915591e-15                      26                       0
    28   1  1.6532731788489269e-15                      27                       0
    29   1  1.7145055188062944e-15                      28                       0
    30   1  1.7757378587636622e-15                      29                       0
    31   1    1.83697019872103e-15                      30                       0
    32   1  1.8982025386783976e-15                      31                       0
    33   1  1.9594348786357651e-15                      32                       0
    34   1  2.0206672185931327e-15                      33                       0
    35   1  2.0818995585505003e-15                      34                       0
    36   1  2.1431318985078682e-15                      35                       0
    37   1  2.2043642384652358e-15                      36                       0
    38   1  2.2655965784226034e-15                      37                       0
    39   1   2.326828918379971e-15                      38                       0
    40   1  2.3880612583373389e-15                      39                       0
    41   1  2.4492935982947065e-15                      40                       0
    42   1  2.5105259382520741e-15                      41                       0
    43   1  2.5717582782094417e-15                      42                       0
    44   1  2.6329906181668092e-15                      43                       0
    45   1  2.6942229581241772e-15                      44                       0
    46   1  2.7554552980815448e-15                      45                       0
    47   1  2.8166876380389124e-15                      46                       0
    48   1  2.8779199779962799e-15                      47                       0
    49   1  2.9391523179536475e-15                      48                       0
    50   1  3.0003846579110155e-15                      49                       0
    51   1   3.061616997868383e-15                      50                       0
    52   1  3.1228493378257506e-15                      51                       0
    53   1  3.1840816777831182e-15                      52                       0
    54   1  3.2453140177404862e-15                      53                       0
    55   1  3.3065463576978537e-15                      54                       0
    56   1  3.3677786976552213e-15                      55                       0
    57   1  3.4290110376125889e-15                      56                       0
    58   1  3.4902433775699565e-15                      57                       0
    59   1  3.5514757175273244e-15                      58                       0
    60   1  3.6127080574846916e-15                      59                       0
    61   1    3.67394039744206e-15                      60                       0
    62   1  3.7351727373994275e-15                      61                       0
    63   1  3.7964050773567951e-15                      62                       0
    64   1  3.8576374173141627e-15                      63                       0
    65   1  3.9188697572715303e-15                      64                       0
    66   1  3.9801020972288978e-15                      65                       0
    67   1  4.0413344371862654e-15                      66                       0
    68   1   4.102566777143633e-15                      67                       0
    69   1  4.1637991171010006e-15                      68                       0
    70   1  4.2250314570583689e-15                      69                       0
    71   1  4.2862637970157365e-15                      70                       0
    72   1  4.3474961369731041e-15                      71                       0
    73   1  4.4087284769304716e-15                      72                       0
    74   1  4.4699608168878392e-15                      73                       0
    75   1  4.5311931568452068e-15                      74                       0
    76   1  4.5924254968025744e-15                      75                       0
    77   1  4.6536578367599419e-15                      76                       0
    78   1  4.7148901767173095e-15                      77                       0
    79   1  4.7761225166746779e-15                      78                       0
    80   1  4.8373548566320455e-15                      79                       0
    81   1   4.898587196589413e-15                      80                       0
    82   1  4.9598195365467806e-15                      81                       0
    83   1  5.0210518765041482e-15                      82                       0
    84   1  5.0822842164615157e-15                      83                       0
    85   1  5.1435165564188833e-15                      84                       0
    86   1  5.2047488963762509e-15                      85                       0
    87   1  5.2659812363336185e-15                      86                       0
    88   1  5.3272135762909868e-15                      87                       0
    89   1  5.3884459162483544e-15                      88                       0
    90   1   5.449678256205722e-15                      89                       0
    91   1  5.5109105961630896e-15                      90                       0
    92   1  5.5721429361204571e-15                      91                       0
    93   1  5.6333752760778247e-15                      92                       0
    94   1  5.6946076160351923e-15                      93                       0
    95   1  5.7558399559925599e-15                      94                       0
    96   1  5.8170722959499274e-15                      95                       0
    97   1   5.878304635907295e-15                      96                       0
    98   1  5.9395369758646634e-15                      97                       0
    99   1  6.0007693158220309e-15                      98                       0
   100   1  6.0620016557793985e-15                      99                       0
   101   1                       1                       0                       0
   102   1                       1                       1                       0
   103   1      1.0000000000000002                       2                       0
   104   1      1.0000000000000002                       3                       0
   105   1      1.0000000000000002                       4                       0
   106   1      1.0000000000000002                       5                       0
   107   1      1.0000000000000004                       6                       0
   108   1      1.0000000000000004                       7                       0
   109   1      1.0000000000000004                       8                       0
   110   1      1.0000000000000004                       9                       0
   111   1      1.0000000000000007                      10                       0
   112   1      1.0000000000000007                      11                       0
   113   1      1.0000000000000007                      12                       0
   114   1      1.0000000000000009                      13                       0
   115   1      1.0000000000000009                      14                       0
   116   1      1.0000000000000009                      15                       0
   117   1      1.0000000000000009                      16                       0
   118   1      1.0000000000000011                      17                       0
   119   1      1.0000000000000011                      18                       0
   120   1      1.0000000000000011                      19                       0
   121   1      1.0000000000000013                      20                       0
   122   1      1.0000000000000013                      21                       0
   123   1      1.0000000000000013                      22                       0
   124   1      1.0000000000000013                      23                       0
   125   1      1.0000000000000016                      24                       0
   126   1      1.0000000000000016                      25                       0
   127   1      1.0000000000000016                      26                       0
   128   1      1.0000000000000016                      27                       0
   129   1      1.0000000000000018                      28                       0
   130   1      1.0000000000000018                      29                       0
   131   1      1.0000000000000018                      30                       0
   132   1       1.000000000000002                      31                       0
   133   1       1.000000000000002                      32                       0
   134   1       1.000000000000002                      33                       0
   135   1       1.000000000000002                      34                       0
   136   1      1.0000000000000022                      35                       0
   137   1      1.0000000000000022                      36                       0
   138   1      1.0000000000000022                      37                       0
   139   1      1.0000000000000022                      38                       0
   140   1      1.0000000000000024                      39                       0
   141   1      1.0000000000000024                      40                       0
   142   1      1.0000000000000024                      41                       0
   143   1      1.0000000000000027                      42                       0
   144   1      1.0000000000000027                      43                       0
   145   1      1.0000000000000027                      44                       0
   146   1      1.0000000000000027                      45                       0
   147   1      1.0000000000000029                      46                       0
   148   1      1.0000000000000029                      47                       0
   149   1      1.0000000000000029                      48                       0
   150   1      1.0000000000000031                      49                       0
   151   1      1.0000000000000031                      50                       0
   152   1      1.0000000000000031                      51                       0
   153   1      1.0000000000000031                      52                       0
   154   1      1.0000000000000033                      53                       0
   155   1      1.0000000000000033                      54                       0
   156   1      1.0000000000000033                      55                       0
   157   1      1.0000000000000033                      56                       0
   158   1      1.0000000000000036                      57                       0
   159   1      1.0000000000000036                      58                       0
   160   1      1.0000000000000036                      59                       0
   161   1      1.0000000000000038                      60                       0
   162   1      1.0000000000000038                      61                       0
   163   1      1.0000000000000038                      62                       0
   164   1      1.0000000000000038                      63                       0
   165   1       1.000000000000004                      64                       0
   166   1       1.000000000000004                      65                       0
   167   1       1.000000000000004                      66                       0
   168   1       1.000000000000004                      67                       0
   169   1      1.0000000000000042                      68                       0
   170   1      1.0000000000000042                      69                       0
   171   1      1.0000000000000042                      70                       0
   172   1      1.0000000000000044                      71                       0
   173   1      1.0000000000000044                      72                       0
   174   1      1.0000000000000044                      73                       0
   175   1      1.0000000000000044                      74                       0
   176   1      1.0000000000000047                      75                       0
   177   1      1.0000000000000047                      76                       0
   178   1      1.0000000000000047                      77                       0
   179   1      1.0000000000000049                      78                       0
   180   1      1.0000000000000049                      79                       0
   181   1      1.0000000000000049                      80                       0
   182   1      1.0000000000000049                      81                       0
   183   1      1.0000000000000051                      82                       0
   184   1      1.0000000000000051                      83                       0
   185   1      1.0000000000000051                      84                       0
   186   1      1.0000000000000051                      85                       0
   187   1      1.0000000000000053                      86                       0
   188   1      1.0000000000000053                      87                       0
   189   1      1.0000000000000053                      88                       0
   190   1      1.0000000000000056                      89                       0
   191   1      1.0000000000000056                      90                       0
   192   1      1.0000000000000056                      91                       0
   193   1      1.0000000000000056                      92                       0
   194   1      1.0000000000000058                      93                       0
   195   1      1.0000000000000058                      94                       0
   196   1      1.0000000000000058                      95                       0
   197   1      1.0000000000000058                      96                       0
   198   1       1.000000000000006                      97                       0
   199   1       1.000000000000006                      98                       0
   200   1       1.000000000000006                      99                       0
   201   1                       2                       0                       0
   202   1                       2                       1                       0
   203   1                       2                       2                       0
   204   1                       2                       3                       0
   205   1      2.0000000000000004                       4                       0
   206   1      2.0000000000000004                       5                       0
   207   1      2.0000000000000004                       6                       0
   208   1      2.0000000000000004                       7                       0
   209   1      2.0000000000000004                       8                       0
   210   1      2.0000000000000004                       9                       0
   211   1      2.0000000000000004                      10                       0
   212   1      2.0000000000000009                      11                       0
   213   1      2.0000000000000009                      12                       0
   214   1      2.0000000000000009                      13                       0
   215   1      2.0000000000000009                      14                       0
   216   1      2.0000000000000009                      15                       0
   217   1      2.0000000000000009                      16                       0
   218   1      2.0000000000000009                      17                       0
   219   1      2.0000000000000009                      18                       0
   220   1      2.0000000000000013                      19                       0
   221   1      2.0000000000000013                      20                       0
   222   1      2.0000000000000013                      21                       0
   223   1      2.0000000000000013                      22                       0
   224   1      2.0000000000000013                      23                       0
   225   1      2.0000000000000013                      24                       0
   226   1      2.0000000000000013                      25                       0
   227   1      2.0000000000000018                      26                       0
   228   1      2.0000000000000018                      27                       0
   229   1      2.0000000000000018                      28                       0
   230   1      2.0000000000000018                      29                       0
   231   1      2.0000000000000018                      30                       0
   232   1      2.0000000000000018                      31                       0
   233   1      2.0000000000000018                      32                       0
   234   1      2.0000000000000022                      33                       0
   235   1      2.0000000000000022                      34                       0
   236   1      2.0000000000000022                      35                       0
   237   1      2.0000000000000022                      36                       0
   238   1      2.0000000000000022                      37                       0
   239   1      2.0000000000000022                      38                       0
   240   1      2.0000000000000022                      39                       0
   241   1      2.0000000000000027                      40                       0
   242   1      2.0000000000000027                      41                       0
   243   1      2.0000000000000027                      42                       0
   244   1      2.0000000000000027                      43                       0
   245   1      2.0000000000000027                      44                       0
   246   1      2.0000000000000027                      45                       0
   247   1      2.0000000000000027                      46                       0
   248   1      2.0000000000000027                      47                       0
   249   1      2.0000000000000031                      48                       0
   250   1      2.0000000000000031                      49                       0
   251   1      2.0000000000000031                      50                       0
   252   1      2.0000000000000031                      51                       0
   253   1      2.0000000000000031                      52                       0
   254   1      2.0000000000000031                      53                       0
   255   1      2.0000000000000031                      54                       0
   256   1      2.0000000000000036                      55                       0
   257   1      2.0000000000000036                      56                       0
   258   1      2.0000000000000036                      57                       0
   259   1      2.0000000000000036                      58                       0
   260   1      2.0000000000000036                      59                       0
   261   1      2.0000000000000036                      60                       0
   262   1      2.0000000000000036                      61                       0
   263   1       2.000000000000004                      62                       0
   264   1       2.000000000000004                      63                       0
   265   1       2.000000000000004                      64                       0
   266   1       2.000000000000004                      65                       0
   267   1       2.000000000000004                      66                       0
   268   1       2.000000000000004                      67                       0
   269   1       2.000000000000004                      68                       0
   270   1      2.0000000000000044                      69                       0
   271   1      2.0000000000000044                      70                       0
   272   1      2.0000000000000044                      71                       0
   273   1      2.0000000000000044                      72                       0
   274   1      2.0000000000000044                      73                       0
   275   1      2.0000000000000044                      74                       0
   276   1      2.0000000000000044                      75                       0
   277   1      2.0000000000000044                      76                       0
   278   1      2.0000000000000049                      77                       0
   279   1      2.0000000000000049                      78                       0
   280   1      2.0000000000000049                      79                       0
   281   1      2.0000000000000049                      80                       0
   282   1      2.0000000000000049                      81                       0
   283   1      2.0000000000000049                      82                       0
   284   1      2.0000000000000049                      83                       0
   285   1      2.0000000000000053                      84                       0
   286   1      2.0000000000000053                      85                       0
   287   1      2.0000000000000053                      86                       0
   288   1      2.0000000000000053                      87                       0
   289   1      2.0000000000000053                      88                       0
   290   1      2.0000000000000053                      89                       0
   291   1      2.0000000000000053                      90                       0
   292   1      2.0000000000000058                      91                       0
   293   1      2.0000000000000058                      92                       0
   294   1      2.0000000000000058                      93                       0
   295   1      2.0000000000000058                      94                       0
   296   1      2.0000000000000058                      95                       0
   297   1      2.0000000000000058                      96                       0
   298   1      2.0000000000000058                      97                       0
   299   1      2.0000000000000062                      98                       0
   300   1      2.0000000000000062                      99                       0
   301   1                       3                       0                       0
   302   1                       3                       1                       0
   303   1                       3                       2                       0
   304   1                       3                       3                       0
   305   1      3.0000000000000004                       4                       0
   306   1      3.0000000000000004                       5                       0
   307   1      3.0000000000000004                       6                       0
   308   1      3.0000000000000004                       7                       0
   309   1      3.0000000000000004                       8                       0
   310   1      3.0000000000000004                       9                       0
   311   1      3.0000000000000004                      10                       0
   312   1      3.0000000000000009                      11                       0
   313   1      3.0000000000000009                      12                       0
   314   1      3.0000000000000009                      13                       0
   315   1      3.0000000000000009                      14                       0
   316   1      3.0000000000000009                      15                       0
   317   1      3.0000000000000009                      16                       0
   318   1      3.0000000000000009                      17                       0
   319   1      3.0000000000000009                      18                       0
   320   1      3.0000000000000013                      19                       0
   321   1      3.0000000000000013                      20                       0
   322   1      3.0000000000000013                      21                       0
   323   1      3.0000000000000013                      22                       0
   324   1      3.0000000000000013                      23                       0
   325   1      3.0000000000000013                      24                       0
   326   1      3.0000000000000013                      25                       0
   327   1      3.0000000000000018                      26                       0
   328   1      3.0000000000000018                      27                       0
   329   1      3.0000000000000018                      28                       0
   330   1      3.0000000000000018                      29                       0
   331   1      3.0000000000000018                      30                       0
   332   1      3.0000000000000018                      31                       0
   333   1      3.0000000000000018                      32                       0
   334   1      3.0000000000000022                      33                       0
   335   1      3.0000000000000022                      34                       0
   336   1      3.0000000000000022                      35                       0
   337   1      3.0000000000000022                      36                       0
   338   1      3.0000000000000022                      37                       0
   339   1      3.0000000000000022                      38                       0
   340   1      3.0000000000000022                      39                       0
   341   1      3.0000000000000027                      40                       0
   342   1      3.0000000000000027                      41                       0
   343   1      3.0000000000000027                      42                       0
   344   1      3.0000000000000027                      43                       0
   345   1      3.0000000000000027                      44                       0
   346   1      3.0000000000000027                      45                       0
   347   1      3.0000000000000027                      46                       0
   348   1      3.0000000000000027                      47                       0
   349   1      3.0000000000000031                      48                       0
   350   1      3.0000000000000031                      49                       0
   351   1      3.0000000000000031                      50                       0
   352   1      3.0000000000000031                      51                       0
   353   1      3.0000000000000031                      52                       0
   354   1      3.0000000000000031                      53                       0