(written by ASE)

4000 atoms
1 atom types

0.0                     100  xlo xhi
0.0      22.199999999999999  ylo yhi
0.0                    0.25  zlo zhi

Atoms # atomic

     1   1   7.297297297297292e-17     0.24999999999999889                       0
     2   1     0.50000000000000011     0.75000297532574156                       0
     3   1  1.7297297297297293e-16      1.2500053843991508                       0
     4   1     0.50000000000000022      1.7500089259772273                       0
     5   1  1.7297297297297293e-16      2.2500107687983029                       0
     6   1     0.50000000000000022      2.7500148766287129                       0
     7   1  2.7297297297297293e-16      3.2500161531974543                       0
     8   1     0.50000000000000033      3.7500208272801983                       0
     9   1  2.7297297297297293e-16      4.2500215375966057                       0
    10   1     0.50000000000000033      4.7500267779316845                       0
    11   1  3.7297297297297293e-16       5.250026921995758                       0
    12   1     0.50000000000000044      5.7500327285831698                       0
    13   1  4.7297297297297292e-16      6.2500323063949095                       0
    14   1     0.50000000000000044      6.7500386792346552                       0
    15   1  4.7297297297297292e-16      7.2500376907940618                       0
    16   1     0.50000000000000056      7.7500446298861414                       0
    17   1  5.7297297297297297e-16      8.2500430751932132                       0
    18   1     0.50000000000000056      8.7500505805376285                       0
    19   1  6.7297297297297292e-16      9.2500484595923655                       0
    20   1     0.50000000000000067       9.750056531189113                       0
    21   1  6.7297297297297292e-16      12.449948848208058                       0
    22   1     0.50000000000000078      12.949946444136629                       0
    23   1  7.7297297297297297e-16       13.44995423260721                       0
    24   1     0.50000000000000078      13.949952394788115                       0
    25   1  7.7297297297297297e-16       14.44995961700636                       0
    26   1     0.50000000000000089      14.949958345439599                       0
    27   1  8.7297297297297292e-16      15.449965001405513                       0
    28   1     0.50000000000000089      15.949964296091085                       0
    29   1  9.7297297297297296e-16      16.449970385804665                       0
    30   1       0.500000000000001       16.94997024674257                       0
    31   1  9.7297297297297296e-16      17.449975770203814                       0
    32   1       0.500000000000001      17.949976197394054                       0
    33   1   1.072972972972973e-15      18.449981154602966                       0
    34   1     0.50000000000000111      18.949982148045542                       0
    35   1   1.072972972972973e-15      19.449986539002118                       0
    36   1     0.50000000000000111      19.949988098697027                       0
    37   1  1.1729729729729729e-15      20.449991923401271                       0
    38   1     0.50000000000000122      20.949994049348511                       0
    39   1  1.2729729729729729e-15      21.449997307800423                       0
    40   1     0.50000000000000122      21.949999999999999                       0
    41   1                       1     0.24999999999999889                       0
    42   1                     1.5     0.75000363402863024                       0
    43   1                       1      1.2500065764504837                       0
    44   1                     1.5      1.7500109020858932                       0
    45   1      1.0000000000000002      2.2500131529009684                       0
    46   1      1.5000000000000002      2.7500181701431563                       0
    47   1      1.0000000000000002      3.2500197293514534                       0
    48   1      1.5000000000000002       3.750025438200419                       0
    49   1      1.0000000000000002      4.2500263058019385                       0
    50   1      1.5000000000000002      4.7500327062576817                       0
    51   1      1.0000000000000002      5.2500328822524231                       0
    52   1      1.5000000000000002      5.7500399743149444                       0
    53   1      1.0000000000000004      6.2500394587029078                       0
    54   1      1.5000000000000004      6.7500472423722071                       0
    55   1      1.0000000000000004      7.2500460351533924                       0
    56   1      1.5000000000000004      7.7500545104294707                       0
    57   1      1.0000000000000004      8.2500526116038788                       0
    58   1      1.5000000000000004      8.7500617784867334                       0
    59   1      1.0000000000000004      9.2500591880543634                       0
    60   1      1.5000000000000004       9.750069046543997                       0
    61   1      1.0000000000000007      12.449937523720394                       0
    62   1      1.5000000000000007      12.949934587484634                       0
    63   1      1.0000000000000007      13.449944100170878                       0
    64   1      1.5000000000000007      13.949941855541896                       0
    65   1      1.0000000000000007      14.449950676621363                       0
    66   1      1.5000000000000007       14.94994912359916                       0
    67   1      1.0000000000000009      15.449957253071849                       0
    68   1      1.5000000000000009      15.949956391656423                       0
    69   1      1.0000000000000009      16.449963829522332                       0
    70   1      1.5000000000000009      16.949963659713685                       0
    71   1      1.0000000000000009      17.449970405972817                       0
    72   1      1.5000000000000009      17.949970927770945                       0
    73   1      1.0000000000000009      18.449976982423301                       0
    74   1      1.5000000000000009      18.949978195828209                       0
    75   1      1.0000000000000011      19.449983558873786                       0
    76   1      1.5000000000000011      19.949985463885472                       0
    77   1      1.0000000000000011      20.449990135324271                       0
    78   1      1.5000000000000011      20.949992731942736                       0
    79   1      1.0000000000000011      21.449996711774755                       0
    80   1      1.5000000000000011      21.949999999999999                       0
    81   1                       2     0.24999999999999889                       0
    82   1                     2.5       0.750004438549285                       0
    83   1                       2      1.2500080323910951                       0
    84   1                     2.5      1.7500133156478577                       0
    85   1                       2      2.2500160647821916                       0
    86   1                     2.5      2.7500221927464299                       0
    87   1                       2      3.2500240971732879                       0
    88   1                     2.5      3.7500310698450026                       0
    89   1      2.0000000000000004      4.2500321295643841                       0
    90   1      2.5000000000000004      4.7500399469435752                       0
    91   1      2.0000000000000004      5.2500401619554804                       0
    92   1      2.5000000000000004      5.7500488240421479                       0
    93   1      2.0000000000000004      6.2500481943465767                       0
    94   1      2.5000000000000004      6.7500577011407206                       0
    95   1      2.0000000000000004      7.2500562267376729                       0
    96   1      2.5000000000000004      7.7500665782392923                       0
    97   1      2.0000000000000004      8.2500642591287701                       0
    98   1      2.5000000000000004      8.7500754553378659                       0
    99   1      2.0000000000000004      9.2500722915198654                       0
   100   1      2.5000000000000004      9.7500843324364386                       0
   101   1      2.0000000000000004      12.449923692284585                       0
   102   1      2.5000000000000004      12.949920106112847                       0
   103   1      2.0000000000000009      13.449931724675681                       0
   104   1      2.5000000000000009       13.94992898321142                       0
   105   1      2.0000000000000009      14.449939757066778                       0
   106   1      2.5000000000000009      14.949937860309992                       0
   107   1      2.0000000000000009      15.449947789457873                       0
   108   1      2.5000000000000009      15.949946737408565                       0
   109   1      2.0000000000000009       16.44995582184897                       0
   110   1      2.5000000000000009      16.949955614507136                       0
   111   1      2.0000000000000009      17.449963854240064                       0
   112   1      2.5000000000000009      17.949964491605709                       0
   113   1      2.0000000000000009      18.449971886631161                       0
   114   1      2.5000000000000009      18.949973368704281                       0
   115   1      2.0000000000000009      19.449979919022258                       0
   116   1      2.5000000000000009      19.949982245802854                       0
   117   1      2.0000000000000009      20.449987951413352                       0
   118   1      2.5000000000000009      20.949991122901427                       0
   119   1      2.0000000000000013      21.449995983804449                       0
   120   1      2.5000000000000013      21.949999999999999                       0
   121   1                       3     0.24999999999999889                       0
   122   1                     3.5     0.75000542116189872                       0
   123   1                       3      1.2500098106299933                       0
   124   1                     3.5      1.7500162634856988                       0
   125   1                       3      2.2500196212599874                       0
   126   1                     3.5      2.7500271058094987                       0
   127   1                       3      3.2500294318899821                       0
   128   1                     3.5      3.7500379481332988                       0
   129   1      3.0000000000000004      4.2500392425199758                       0
   130   1      3.5000000000000004      4.7500487904570985                       0
   131   1      3.0000000000000004      5.2500490531499704                       0
   132   1      3.5000000000000004      5.7500596327808982                       0
   133   1      3.0000000000000004       6.250058863779965                       0
   134   1      3.5000000000000004      6.7500704751046987                       0
   135   1      3.0000000000000004      7.2500686744099587                       0
   136   1      3.5000000000000004      7.7500813174284984                       0
   137   1      3.0000000000000004      8.2500784850399533                       0
   138   1      3.5000000000000004      8.7500921597522989                       0
   139   1      3.0000000000000004      9.2500882956699488                       0
   140   1      3.5000000000000004      9.7501030020760986                       0
   141   1      3.0000000000000004      12.449906799015054                       0
   142   1      3.5000000000000004      12.949902419085801                       0
   143   1      3.0000000000000009      13.449916609645047                       0
   144   1      3.5000000000000009        13.9499132614096                       0
   145   1      3.0000000000000009      14.449926420275043                       0
   146   1      3.5000000000000009        14.9499241037334                       0
   147   1      3.0000000000000009      15.449936230905037                       0
   148   1      3.5000000000000009        15.9499349460572                       0
   149   1      3.0000000000000009      16.449946041535028                       0
   150   1      3.5000000000000009      16.949945788380997                       0
   151   1      3.0000000000000009      17.449955852165022                       0
   152   1      3.5000000000000009      17.949956630704797                       0
   153   1      3.0000000000000009      18.449965662795019                       0
   154   1      3.5000000000000009      18.949967473028597                       0
   155   1      3.0000000000000009      19.449975473425013                       0
   156   1      3.5000000000000009        19.9499783153524                       0
   157   1      3.0000000000000009      20.449985284055007                       0
   158   1      3.5000000000000009        20.9499891576762                       0
   159   1      3.0000000000000013      21.449995094685001                       0
   160   1      3.5000000000000013      21.949999999999999                       0
   161   1                       4     0.24999999999999889                       0
   162   1                     4.5     0.75000662128121265                       0
   163   1                       4      1.2500119824998377                       0
   164   1                     4.5      1.7500198638436402                       0
   165   1                       4      2.2500239649996763                       0
   166   1                     4.5      2.7500331064060681                       0
   167   1                       4      3.2500359474995153                       0
   168   1                     4.5      3.7500463489684952                       0
   169   1                       4      4.2500479299993543                       0
   170   1                     4.5      4.7500595915309232                       0
   171   1                       4      5.2500599124991929                       0
   172   1                     4.5      5.7500728340933511                       0
   173   1                       4      6.2500718949990315                       0
   174   1                     4.5      6.7500860766557782                       0
   175   1                       4      7.2500838774988701                       0
   176   1                     4.5      7.7500993192182053                       0
   177   1      4.0000000000000009      8.2500958599987086                       0
   178   1      4.5000000000000009      8.7501125617806341                       0
   179   1      4.0000000000000009       9.250107842498549                       0
   180   1      4.5000000000000009      9.7501258043430621                       0
   181   1      4.0000000000000009      12.449886166251531                       0
   182   1      4.5000000000000009      12.949880816938151                       0
   183   1      4.0000000000000009       13.44989814875137                       0
   184   1      4.5000000000000009      13.949894059500579                       0
   185   1      4.0000000000000009      14.449910131251208                       0
   186   1      4.5000000000000009      14.949907302063007                       0
   187   1      4.0000000000000009      15.449922113751049                       0
   188   1      4.5000000000000009      15.949920544625433                       0
   189   1      4.0000000000000009      16.449934096250885                       0
   190   1      4.5000000000000009      16.949933787187859                       0
   191   1      4.0000000000000009      17.449946078750724                       0
   192   1      4.5000000000000009      17.949947029750287                       0
   193   1      4.0000000000000009      18.449958061250562                       0
   194   1      4.5000000000000009      18.949960272312715                       0
   195   1      4.0000000000000009      19.449970043750401                       0
   196   1      4.5000000000000009      19.949973514875143                       0
   197   1      4.0000000000000009       20.44998202625024                       0
   198   1      4.5000000000000009      20.949986757437571                       0
   199   1      4.0000000000000009      21.449994008750078                       0
   200   1      4.5000000000000009      21.949999999999999                       0
   201   1                       5     0.24999999999999889                       0
   202   1                     5.5     0.75000808704097266                       0
   203   1                       5       1.250014635114209                       0
   204   1                     5.5      1.7500242611229206                       0
   205   1                       5      2.2500292702284188                       0
   206   1                     5.5      2.7500404352048684                       0
   207   1                       5      3.2500439053426291                       0
   208   1                     5.5      3.7500566092868164                       0
   209   1                       5      4.2500585404568394                       0
   210   1                     5.5      4.7500727833687639                       0
   211   1                       5      5.2500731755710488                       0
   212   1                     5.5      5.7500889574507115                       0
   213   1                       5      6.2500878106852591                       0
   214   1                     5.5       6.750105131532659                       0
   215   1                       5      7.2501024457994694                       0
   216   1                     5.5      7.7501213056146074                       0
   217   1      5.0000000000000009      8.2501170809136806                       0
   218   1      5.5000000000000009       8.750137479696555                       0
   219   1      5.0000000000000009      9.2501317160278909                       0
   220   1      5.5000000000000009      9.7501536537785043                       0
   221   1      5.0000000000000009      12.449860966415004                       0
   222   1      5.5000000000000009       12.94985443326247                       0
   223   1      5.0000000000000009      13.449875601529214                       0
   224   1      5.5000000000000009      13.949870607344417                       0
   225   1      5.0000000000000009      14.449890236643425                       0
   226   1      5.5000000000000009      14.949886781426365                       0
   227   1      5.0000000000000009      15.449904871757633                       0
   228   1      5.5000000000000009      15.949902955508312                       0
   229   1      5.0000000000000009      16.449919506871844                       0
   230   1      5.5000000000000009       16.94991912959026                       0
   231   1      5.0000000000000009      17.449934141986052                       0
   232   1      5.5000000000000009      17.949935303672206                       0
   233   1      5.0000000000000009      18.449948777100264                       0
   234   1      5.5000000000000009      18.949951477754155                       0
   235   1      5.0000000000000009      19.449963412214473                       0
   236   1      5.5000000000000009      19.949967651836101                       0
   237   1      5.0000000000000009      20.449978047328681                       0
   238   1      5.5000000000000009       20.94998382591805                       0
   239   1      5.0000000000000009      21.449992682442893                       0
   240   1      5.5000000000000009      21.949999999999999                       0
   241   1                       6     0.24999999999999889                       0
   242   1                     6.5     0.75000987722064116                       0
   243   1                       6      1.2500178748554873                       0
   244   1                     6.5      1.7500296316619259                       0
   245   1                       6       2.250035749710976                       0
   246   1                     6.5      2.7500493861032105                       0
   247   1                       6      3.2500536245664646                       0
   248   1                     6.5       3.750069140544495                       0
   249   1                       6      4.2500714994219528                       0
   250   1                     6.5      4.7500888949857805                       0
   251   1                       6       5.250089374277441                       0
   252   1                     6.5       5.750108649427065                       0
   253   1                       6      6.2501072491329301                       0
   254   1                     6.5      6.7501284038683496                       0
   255   1                       6      7.2501251239884184                       0
   256   1                     6.5      7.7501481583096341                       0
   257   1      6.0000000000000009      8.2501429988439074                       0
   258   1      6.5000000000000009      8.7501679127509195                       0
   259   1      6.0000000000000009      9.2501608736993965                       0
   260   1      6.5000000000000009      9.7501876671922041                       0
   261   1      6.0000000000000009      12.449830188872859                       0
   262   1      6.5000000000000009      12.949822210028437                       0
   263   1      6.0000000000000009      13.449848063728348                       0
   264   1      6.5000000000000009      13.949841964469721                       0
   265   1      6.0000000000000009      14.449865938583836                       0
   266   1      6.5000000000000009      14.949861718911007                       0
   267   1      6.0000000000000009      15.449883813439325                       0
   268   1      6.5000000000000009       15.94988147335229                       0
   269   1      6.0000000000000009      16.449901688294812                       0
   270   1      6.5000000000000009      16.949901227793575                       0
   271   1      6.0000000000000009      17.449919563150299                       0
   272   1      6.5000000000000009      17.949920982234858                       0
   273   1      6.0000000000000009      18.449937438005787                       0
   274   1      6.5000000000000009      18.949940736676144                       0
   275   1      6.0000000000000009      19.449955312861277                       0
   276   1      6.5000000000000009      19.949960491117427                       0
   277   1      6.0000000000000009      20.449973187716765                       0
   278   1      6.5000000000000009      20.949980245558713                       0
   279   1      6.0000000000000009      21.449991062572256                       0
   280   1      6.5000000000000009      21.949999999999999                       0
   281   1                       7     0.24999999999999889                       0
   282   1                     7.5     0.75001206359686745                       0
   283   1                       7      1.2500218316319796                       0
   284   1                     7.5      1.7500361907906052                       0
   285   1                       7        2.25004366326396                       0
   286   1                     7.5      2.7500603179843424                       0
   287   1                       7      3.2500654948959409                       0
   288   1                     7.5      3.7500844451780804                       0
   289   1                       7      4.2500873265279218                       0
   290   1                     7.5      4.7501085723718175                       0
   291   1                       7      5.2501091581599022                       0
   292   1                     7.5      5.7501326995655555                       0
   293   1                       7      6.2501309897918826                       0
   294   1                     7.5      6.7501568267592926                       0
   295   1                       7      7.2501528214238631                       0
   296   1                     7.5      7.7501809539530297                       0
   297   1      7.0000000000000009      8.2501746530558453                       0
   298   1      7.5000000000000009      8.7502050811467686                       0
   299   1      7.0000000000000009      9.2501964846878248                       0
   300   1      7.5000000000000009      9.7502292083405067                       0
   301   1      7.0000000000000009      12.449792599496183                       0
   302   1      7.5000000000000009      12.949782855256363                       0
   303   1      7.0000000000000009      13.449814431128164                       0
   304   1      7.5000000000000009      13.949806982450099                       0
   305   1      7.0000000000000009      14.449836262760146                       0
   306   1      7.5000000000000009      14.949831109643837                       0
   307   1      7.0000000000000009      15.449858094392125                       0
   308   1      7.5000000000000009      15.949855236837575                       0
   309   1      7.0000000000000009      16.449879926024106                       0
   310   1      7.5000000000000009      16.949879364031311                       0
   311   1      7.0000000000000009      17.449901757656086                       0
   312   1      7.5000000000000009      17.949903491225047                       0
   313   1      7.0000000000000009      18.449923589288066                       0
   314   1      7.5000000000000009      18.949927618418787                       0
   315   1      7.0000000000000009      19.449945420920045                       0
   316   1      7.5000000000000009      19.949951745612523                       0
   317   1      7.0000000000000009      20.449967252552028                       0
   318   1      7.5000000000000009       20.94997587280626                       0
   319   1      7.0000000000000009      21.449989084184008                       0
   320   1      7.5000000000000009      21.949999999999999                       0
   321   1                       8     0.24999999999999889                       0
   322   1                     8.5     0.75001473381287087                       0
   323   1                       8       1.250026664073143                       0
   324   1                     8.5      1.7500442014386151                       0
   325   1                       8      2.2500533281462869                       0
   326   1                     8.5       2.750073669064359                       0
   327   1                       8       3.250079992219431                       0
   328   1                     8.5       3.750103136690103                       0
   329   1                       8      4.2501066562925747                       0
   330   1                     8.5      4.7501326043158469                       0
   331   1                       8      5.2501333203657188                       0
   332   1                     8.5      5.7501620719415909                       0
   333   1                       8      6.2501599844388629                       0
   334   1                     8.5      6.7501915395673358                       0
   335   1                       8       7.250186648512007                       0
   336   1                     8.5      7.7502210071930797                       0
   337   1                       8      8.2502133125851511                       0
   338   1                     8.5      8.7502504748188237                       0
   339   1                       8      9.2502399766582961                       0
   340   1                     8.5      9.7502799424445694                       0
   341   1                       8      12.449746691305132                       0
   342   1                     8.5      12.949734791368302                       0
   343   1                       8      13.449773355378275                       0
   344   1                     8.5      13.949764258994046                       0
   345   1                       8       14.44980001945142                       0
   346   1                     8.5      14.949793726619792                       0
   347   1                       8      15.449826683524563                       0
   348   1                     8.5      15.949823194245536                       0
   349   1                       8      16.449853347597706                       0
   350   1                     8.5      16.949852661871279                       0
   351   1      8.0000000000000018      17.449880011670849                       0
   352   1      8.5000000000000018       17.94988212949702                       0
   353   1      8.0000000000000018      18.449906675743993                       0
   354   1      8.5000000000000018      18.949911597122767                       0