(written by ASE)

2000 atoms
1 atom types

0.0                     100  xlo xhi
0.0      21.399999999999999  ylo yhi
0.0                    0.25  zlo zhi

Atoms # atomic

     1   1  6.7289719626168215e-17     0.49999999999999978                       0
     2   1  1.6728971962616821e-16      1.5001821932852255                       0
     3   1  1.6728971962616821e-16      2.5003643865704515                       0
     4   1  2.6728971962616819e-16      3.5005465798556767                       0
     5   1  2.6728971962616819e-16      4.5007287731409029                       0
     6   1  3.6728971962616823e-16      5.5009109664261278                       0
     7   1  4.6728971962616818e-16      6.5010931597113544                       0
     8   1  4.6728971962616818e-16      7.5012753529965792                       0
     9   1  5.6728971962616823e-16      8.5014575462818058                       0
    10   1  6.6728971962616818e-16      9.5016397395670307                       0
    11   1  6.6728971962616818e-16      11.898360260432968                       0
    12   1  7.6728971962616823e-16      12.898542453718193                       0
    13   1  7.6728971962616823e-16      13.898724647003419                       0
    14   1  8.6728971962616817e-16      14.898906840288644                       0
    15   1  9.6728971962616832e-16      15.899089033573871                       0
    16   1  9.6728971962616832e-16      16.899271226859096                       0
    17   1  1.0672897196261684e-15      17.899453420144322                       0
    18   1  1.0672897196261684e-15      18.899635613429549                       0
    19   1  1.1672897196261682e-15      19.899817806714772                       0
    20   1  1.2672897196261683e-15      20.899999999999999                       0
    21   1                       1     0.49999999999999978                       0
    22   1                       1      1.5002714703083793                       0
    23   1      1.0000000000000002       2.500542940616759                       0
    24   1      1.0000000000000002       3.500814410925138                       0
    25   1      1.0000000000000002      4.5010858812335179                       0
    26   1      1.0000000000000002      5.5013573515418965                       0
    27   1      1.0000000000000004      6.5016288218502769                       0
    28   1      1.0000000000000004      7.5019002921586555                       0
    29   1      1.0000000000000004      8.5021717624670359                       0
    30   1      1.0000000000000004      9.5024432327754145                       0
    31   1      1.0000000000000007      11.897556767224584                       0
    32   1      1.0000000000000007      12.897828237532963                       0
    33   1      1.0000000000000007      13.898099707841343                       0
    34   1      1.0000000000000009      14.898371178149722                       0
    35   1      1.0000000000000009      15.898642648458102                       0
    36   1      1.0000000000000009      16.898914118766481                       0
    37   1      1.0000000000000009      17.899185589074861                       0
    38   1      1.0000000000000011      18.899457059383241                       0
    39   1      1.0000000000000011      19.899728529691618                       0
    40   1      1.0000000000000011      20.899999999999999                       0
    41   1                       2     0.49999999999999978                       0
    42   1                       2      1.5004042536031172                       0
    43   1                       2      2.5008085072062345                       0
    44   1                       2      3.5012127608093517                       0
    45   1      2.0000000000000004       4.501617014412469                       0
    46   1      2.0000000000000004      5.5020212680155876                       0
    47   1      2.0000000000000004      6.5024255216187044                       0
    48   1      2.0000000000000004      7.5028297752218212                       0
    49   1      2.0000000000000004      8.5032340288249397                       0
    50   1      2.0000000000000004      9.5036382824280565                       0
    51   1      2.0000000000000004      11.896361717571942                       0
    52   1      2.0000000000000009      12.896765971175061                       0
    53   1      2.0000000000000009      13.897170224778177                       0
    54   1      2.0000000000000009      14.897574478381294                       0
    55   1      2.0000000000000009      15.897978731984413                       0
    56   1      2.0000000000000009      16.898382985587531                       0
    57   1      2.0000000000000009      17.898787239190646                       0
    58   1      2.0000000000000009      18.899191492793765                       0
    59   1      2.0000000000000009      19.899595746396884                       0
    60   1      2.0000000000000013      20.899999999999999                       0
    61   1                       3     0.49999999999999978                       0
    62   1                       3      1.5006014526112852                       0
    63   1                       3      2.5012029052225708                       0
    64   1                       3      3.5018043578338562                       0
    65   1      3.0000000000000004      4.5024058104451417                       0
    66   1      3.0000000000000004      5.5030072630564266                       0
    67   1      3.0000000000000004      6.5036087156677134                       0
    68   1      3.0000000000000004      7.5042101682789983                       0
    69   1      3.0000000000000004      8.5048116208902833                       0
    70   1      3.0000000000000004      9.5054130735015683                       0
    71   1      3.0000000000000004       11.89458692649843                       0
    72   1      3.0000000000000009      12.895188379109715                       0
    73   1      3.0000000000000009         13.895789831721                       0
    74   1      3.0000000000000009      14.896391284332287                       0
    75   1      3.0000000000000009      15.896992736943572                       0
    76   1      3.0000000000000009      16.897594189554859                       0
    77   1      3.0000000000000009      17.898195642166144                       0
    78   1      3.0000000000000009      18.898797094777429                       0
    79   1      3.0000000000000009      19.899398547388714                       0
    80   1      3.0000000000000013      20.899999999999999                       0
    81   1                       4     0.49999999999999978                       0
    82   1                       4      1.5008936741567358                       0
    83   1                       4      2.5017873483134716                       0
    84   1                       4      3.5026810224702079                       0
    85   1                       4      4.5035746966269432                       0
    86   1                       4      5.5044683707836803                       0
    87   1                       4      6.5053620449404157                       0
    88   1                       4      7.5062557190971511                       0
    89   1      4.0000000000000009      8.5071493932538882                       0
    90   1      4.0000000000000009      9.5080430674106236                       0
    91   1      4.0000000000000009      11.891956932589375                       0
    92   1      4.0000000000000009      12.892850606746112                       0
    93   1      4.0000000000000009      13.893744280902848                       0
    94   1      4.0000000000000009      14.894637955059583                       0
    95   1      4.0000000000000009       15.89553162921632                       0
    96   1      4.0000000000000009      16.896425303373057                       0
    97   1      4.0000000000000009      17.897318977529793                       0
    98   1      4.0000000000000009      18.898212651686528                       0
    99   1      4.0000000000000009      19.899106325843263                       0
   100   1      4.0000000000000009      20.899999999999999                       0
   101   1                       5     0.49999999999999978                       0
   102   1                       5       1.501325299681417                       0
   103   1                       5      2.5026505993628345                       0
   104   1                       5      3.5039758990442516                       0
   105   1                       5       4.505301198725669                       0
   106   1                       5       5.506626498407087                       0
   107   1                       5       6.507951798088504                       0
   108   1                       5       7.509277097769921                       0
   109   1      5.0000000000000009      8.5106023974513381                       0
   110   1      5.0000000000000009      9.5119276971327551                       0
   111   1      5.0000000000000009      11.888072302867243                       0
   112   1      5.0000000000000009      12.889397602548661                       0
   113   1      5.0000000000000009      13.890722902230078                       0
   114   1      5.0000000000000009      14.892048201911496                       0
   115   1      5.0000000000000009      15.893373501592913                       0
   116   1      5.0000000000000009       16.89469880127433                       0
   117   1      5.0000000000000009      17.896024100955746                       0
   118   1      5.0000000000000009      18.897349400637165                       0
   119   1      5.0000000000000009      19.898674700318583                       0
   120   1      5.0000000000000009      20.899999999999999                       0
   121   1                       6     0.49999999999999978                       0
   122   1                       6      1.5019597784740846                       0
   123   1                       6      2.5039195569481696                       0
   124   1                       6      3.5058793354222542                       0
   125   1                       6      4.5078391138963392                       0
   126   1                       6      5.5097988923704246                       0
   127   1                       6      6.5117586708445092                       0
   128   1                       6      7.5137184493185938                       0
   129   1      6.0000000000000009      8.5156782277926784                       0
   130   1      6.0000000000000009      9.5176380062667629                       0
   131   1      6.0000000000000009      11.882361993733236                       0
   132   1      6.0000000000000009       12.88432177220732                       0
   133   1      6.0000000000000009      13.886281550681405                       0
   134   1      6.0000000000000009      14.888241329155489                       0
   135   1      6.0000000000000009      15.890201107629576                       0
   136   1      6.0000000000000009       16.89216088610366                       0
   137   1      6.0000000000000009      17.894120664577745                       0
   138   1      6.0000000000000009      18.896080443051829                       0
   139   1      6.0000000000000009      19.898040221525914                       0
   140   1      6.0000000000000009      20.899999999999999                       0
   141   1                       7     0.49999999999999978                       0
   142   1                       7      1.5028858953639719                       0
   143   1                       7      2.5057717907279442                       0
   144   1                       7      3.5086576860919161                       0
   145   1                       7      4.5115435814558875                       0
   146   1                       7      5.5144294768198598                       0
   147   1                       7      6.5173153721838322                       0
   148   1                       7      7.5202012675478045                       0
   149   1      7.0000000000000009      8.5230871629117768                       0
   150   1      7.0000000000000009      9.5259730582757491                       0
   151   1      7.0000000000000009      11.874026941724249                       0
   152   1      7.0000000000000009      12.876912837088222                       0
   153   1      7.0000000000000009      13.879798732452194                       0
   154   1      7.0000000000000009      14.882684627816166                       0
   155   1      7.0000000000000009      15.885570523180139                       0
   156   1      7.0000000000000009      16.888456418544113                       0
   157   1      7.0000000000000009      17.891342313908083                       0
   158   1      7.0000000000000009      18.894228209272054                       0
   159   1      7.0000000000000009      19.897114104636028                       0
   160   1      7.0000000000000009      20.899999999999999                       0
   161   1                       8     0.49999999999999978                       0
   162   1                       8      1.5042238866451796                       0
   163   1                       8      2.5084477732903592                       0
   164   1                       8      3.5126716599355392                       0
   165   1                       8      4.5168955465807183                       0
   166   1                       8      5.5211194332258984                       0
   167   1                       8      6.5253433198710784                       0
   168   1                       8      7.5295672065162584                       0
   169   1                       8      8.5337910931614385                       0
   170   1                       8      9.5380149798066185                       0
   171   1                       8       11.86198502019338                       0
   172   1                       8       12.86620890683856                       0
   173   1                       8       13.87043279348374                       0
   174   1                       8       14.87465668012892                       0
   175   1                       8        15.8788805667741                       0
   176   1      8.0000000000000018      16.883104453419282                       0
   177   1      8.0000000000000018       17.88732834006446                       0
   178   1      8.0000000000000018      18.891552226709639                       0
   179   1      8.0000000000000018       19.89577611335482                       0
   180   1      8.0000000000000018      20.899999999999999                       0
   181   1                       9     0.49999999999999978                       0
   182   1                       9      1.5061285144784993                       0
   183   1                       9       2.512257028956999                       0
   184   1                       9      3.5183855434354983                       0
   185   1                       9       4.524514057913998                       0
   186   1                       9      5.5306425723924981                       0
   187   1                       9      6.5367710868709974                       0
   188   1                       9      7.5428996013494967                       0
   189   1                       9      8.5490281158279959                       0
   190   1                       9      9.5551566303064952                       0
   191   1                       9      11.844843369693503                       0
   192   1                       9      12.850971884172003                       0
   193   1                       9      13.857100398650502                       0
   194   1                       9      14.863228913129001                       0
   195   1                       9      15.869357427607502                       0
   196   1      9.0000000000000018      16.875485942086002                       0
   197   1      9.0000000000000018      17.881614456564499                       0
   198   1      9.0000000000000018         18.887742971043                       0
   199   1      9.0000000000000018      19.893871485521501                       0
   200   1      9.0000000000000018      20.899999999999999                       0
   201   1                      10     0.49999999999999978                       0
   202   1                      10      1.5087833732016294                       0
   203   1                      10      2.5175667464032592                       0
   204   1                      10       3.526350119604889                       0
   205   1                      10      4.5351334928065192                       0
   206   1                      10      5.5439168660081481                       0
   207   1                      10      6.5527002392097788                       0
   208   1                      10      7.5614836124114078                       0
   209   1                      10      8.5702669856130367                       0
   210   1                      10      9.5790503588146674                       0
   211   1                      10      11.820949641185331                       0
   212   1                      10      12.829733014386962                       0
   213   1                      10      13.838516387588591                       0
   214   1                      10      14.847299760790222                       0
   215   1                      10       15.85608313399185                       0
   216   1      10.000000000000002      16.864866507193483                       0
   217   1      10.000000000000002       17.87364988039511                       0
   218   1      10.000000000000002      18.882433253596741                       0
   219   1      10.000000000000002      19.891216626798368                       0
   220   1      10.000000000000002      20.899999999999999                       0
   221   1                      11     0.49999999999999978                       0
   222   1                      11      1.5123775926743421                       0
   223   1                      11      2.5247551853486847                       0
   224   1                      11      3.5371327780230271                       0
   225   1                      11      4.5495103706973694                       0
   226   1                      11      5.5618879633717118                       0
   227   1                      11      6.5742655560460541                       0
   228   1                      11      7.5866431487203965                       0
   229   1                      11      8.5990207413947388                       0
   230   1                      11      9.6113983340690812                       0
   231   1                      11      11.788601665930917                       0
   232   1                      11       12.80097925860526                       0
   233   1                      11      13.813356851279602                       0
   234   1                      11      14.825734443953944                       0
   235   1                      11      15.838112036628287                       0
   236   1      11.000000000000002      16.850489629302629                       0
   237   1      11.000000000000002      17.862867221976973                       0
   238   1      11.000000000000002      18.875244814651314                       0
   239   1      11.000000000000002      19.887622407325658                       0
   240   1      11.000000000000002      20.899999999999999                       0
   241   1                      12     0.49999999999999978                       0
   242   1                      12      1.5170560685842827                       0
   243   1                      12      2.5341121371685658                       0
   244   1                      12      3.5511682057528486                       0
   245   1                      12      4.5682242743371315                       0
   246   1                      12      5.5852803429214148                       0
   247   1                      12      6.6023364115056964                       0
   248   1                      12      7.6193924800899797                       0
   249   1                      12       8.636448548674263                       0
   250   1                      12      9.6535046172585464                       0
   251   1                      12      11.746495382741452                       0
   252   1                      12      12.763551451325736                       0
   253   1                      12      13.780607519910019                       0
   254   1                      12      14.797663588494302                       0
   255   1                      12      15.814719657078584                       0
   256   1      12.000000000000002      16.831775725662869                       0
   257   1      12.000000000000002       17.84883179424715                       0
   258   1      12.000000000000002      18.865887862831432                       0
   259   1      12.000000000000002      19.882943931415717                       0
   260   1      12.000000000000002      20.899999999999999                       0
   261   1                      13     0.49999999999999978                       0
   262   1                      13      1.5228439856011231                       0
   263   1                      13      2.5456879712022467                       0
   264   1                      13      3.5685319568033695                       0
   265   1                      13      4.5913759424044933                       0
   266   1                      13      5.6142199280056158                       0
   267   1                      13        6.63706391360674                       0
   268   1                      13      7.6599078992078624                       0
   269   1                      13      8.6827518848089866                       0
   270   1                      13      9.7055958704101091                       0
   271   1                      13       11.69440412958989                       0
   272   1                      13      12.717248115191014                       0
   273   1                      13      13.740092100792136                       0
   274   1                      13       14.76293608639326                       0
   275   1                      13      15.785780071994383                       0
   276   1      13.000000000000002      16.808624057595505                       0
   277   1      13.000000000000002      17.831468043196629                       0
   278   1      13.000000000000002      18.854312028797754                       0
   279   1      13.000000000000002      19.877156014398874                       0
   280   1      13.000000000000002      20.899999999999999                       0
   281   1                      14     0.49999999999999978                       0
   282   1                      14      1.5295703829390823                       0
   283   1                      14      2.5591407658781646                       0
   284   1                      14      3.5887111488172474                       0
   285   1                      14      4.6182815317563293                       0
   286   1                      14       5.647851914695412                       0
   287   1                      14      6.6774222976344948                       0
   288   1                      14      7.7069926805735776                       0
   289   1                      14      8.7365630635126603                       0
   290   1                      14      9.7661334464517413                       0
   291   1                      14      11.633866553548257                       0
   292   1                      14       12.66343693648734                       0
   293   1                      14      13.693007319426421                       0
   294   1                      14      14.722577702365504                       0
   295   1                      14      15.752148085304587                       0
   296   1      14.000000000000002      16.781718468243671                       0
   297   1      14.000000000000002      17.811288851182752                       0
   298   1      14.000000000000002      18.840859234121833                       0
   299   1      14.000000000000002      19.870429617060918                       0
   300   1      14.000000000000002      20.899999999999999                       0
   301   1                      15     0.49999999999999978                       0
   302   1                      15      1.5368421052631578                       0
   303   1                      15      2.5736842105263156                       0
   304   1                      15      3.6105263157894734                       0
   305   1                      15      4.6473684210526311                       0
   306   1                      15      5.6842105263157894                       0
   307   1                      15      6.7210526315789476                       0
   308   1                      15      7.7578947368421058                       0
   309   1                      15      8.7947368421052623                       0
   310   1                      15      9.8315789473684205                       0
   311   1                      15      11.568421052631578                       0
   312   1                      15      12.605263157894736                       0
   313   1                      15      13.642105263157895                       0
   314   1                      15      14.678947368421053                       0
   315   1                      15      15.715789473684209                       0
   316   1      15.000000000000002      16.752631578947369                       0
   317   1      15.000000000000002      17.789473684210524                       0
   318   1      15.000000000000002      18.826315789473682                       0
   319   1      15.000000000000002       19.86315789473684                       0
   320   1      15.000000000000002      20.899999999999999                       0
   321   1                      16     0.49999999999999978                       0
   322   1                      16       1.544113827587233                       0
   323   1                      16      2.5882276551744665                       0
   324   1                      16      3.6323414827616998                       0
   325   1                      16       4.676455310348933                       0
   326   1                      16      5.7205691379361667                       0
   327   1                      16      6.7646829655234004                       0
   328   1                      16      7.8087967931106324                       0
   329   1                      16      8.8529106206978661                       0
   330   1                      16      9.8970244482850998                       0
   331   1                      16      11.502975551714899                       0
   332   1                      16      12.547089379302133                       0
   333   1                      16      13.591203206889366                       0
   334   1                      16        14.6353170344766                       0
   335   1                      16      15.679430862063832                       0
   336   1                      16      16.723544689651067                       0
   337   1                      16      17.767658517238299                       0
   338   1                      16      18.811772344825531                       0
   339   1                      16      19.855886172412767                       0
   340   1                      16      20.899999999999999                       0
   341   1                      17     0.49999999999999978                       0
   342   1                      17      1.5508402249251922                       0
   343   1                      17      2.6016804498503845                       0
   344   1                      17      3.6525206747755772                       0
   345   1                      17      4.7033608997007699                       0
   346   1                      17       5.754201124625963                       0
   347   1                      17      6.8050413495511552                       0
   348   1                      17      7.8558815744763475                       0
   349   1                      17      8.9067217994015397                       0
   350   1                      17       9.957562024326732                       0
   351   1                      17      11.442437975673267                       0
   352   1                      17      12.493278200598459                       0
   353   1                      17      13.544118425523651                       0
   354   1                      17      14.594958650448845                       0