(written by ASE)

4000 atoms
1 atom types

0.0                     100  xlo xhi
0.0      36.328470090272909  ylo yhi
0.0                    0.25  zlo zhi

Atoms # atomic

     1   1  7.3803088958917704e-17      0.4330127018922193                       0
     2   1     0.50000000000000011      1.2990381057970413                       0
     3   1   1.738030889589177e-16      2.1650635096582196                       0
     4   1     0.50000000000000022       3.031088913606685                       0
     5   1   2.738030889589177e-16      3.8971143174242195                       0
     6   1     0.50000000000000033      4.7631397214163282                       0
     7   1   3.738030889589177e-16      5.6291651251902195                       0
     8   1     0.50000000000000044      6.4951905292259724                       0
     9   1  4.7380308895891774e-16      7.3612159329562195                       0
    10   1     0.50000000000000056      8.2272413370356166                       0
    11   1  5.7380308895891779e-16      9.0932667407222194                       0
    12   1     0.50000000000000067      9.9592921448452607                       0
    13   1  6.7380308895891764e-16      10.825317548488222                       0
    14   1     0.50000000000000078      11.691342952654905                       0
    15   1  7.7380308895891769e-16      12.557368356254221                       0
    16   1     0.50000000000000089      13.423393760464549                       0
    17   1  8.7380308895891774e-16       14.28941916402022                       0
    18   1       0.500000000000001      15.155444568274191                       0
    19   1  1.0738030889589178e-15      16.021469971786221                       0
    20   1     0.50000000000000111      16.887495376083834                       0
    21   1  1.1738030889589177e-15      19.440974714603687                       0
    22   1     0.50000000000000122      20.307000118093892                       0
    23   1  1.2738030889589177e-15      21.173025522369688                       0
    24   1     0.50000000000000133      22.039050925903538                       0
    25   1  1.3738030889589178e-15      22.905076330135689                       0
    26   1     0.50000000000000133      23.771101733713184                       0
    27   1  1.4738030889589178e-15      24.637127137901686                       0
    28   1     0.50000000000000144      25.503152541522823                       0
    29   1  1.5738030889589177e-15      26.369177945667687                       0
    30   1     0.50000000000000155      27.235203349332469                       0
    31   1  1.6738030889589177e-15      28.101228753433684                       0
    32   1     0.50000000000000167      28.967254157142111                       0
    33   1  1.7738030889589178e-15      29.833279561199689                       0
    34   1     0.50000000000000178      30.699304964951754                       0
    35   1  1.8738030889589178e-15      31.565330368965689                       0
    36   1     0.50000000000000189        32.4313557727614                       0
    37   1  1.9738030889589179e-15       33.29738117673169                       0
    38   1       0.500000000000002      34.163406580571042                       0
    39   1  2.0738030889589179e-15      35.029431984497691                       0
    40   1     0.50000000000000211      35.895457388380692                       0
    41   1                       1      0.4330127018922193                       0
    42   1                     1.5      1.2990381058562486                       0
    43   1                       1      2.1650635097551691                       0
    44   1                     1.5      3.0310889137843073                       0
    45   1      1.0000000000000002      3.8971143176181195                       0
    46   1      1.5000000000000002      4.7631397217123652                       0
    47   1      1.0000000000000002      5.6291651254810695                       0
    48   1      1.5000000000000002       6.495190529640424                       0
    49   1      1.0000000000000004      7.3612159333440195                       0
    50   1      1.5000000000000004      8.2272413375684827                       0
    51   1      1.0000000000000004      9.0932667412069694                       0
    52   1      1.5000000000000004      9.9592921454965424                       0
    53   1      1.0000000000000007       10.82531754906992                       0
    54   1      1.5000000000000007      11.691342953424602                       0
    55   1      1.0000000000000007      12.557368356932871                       0
    56   1      1.5000000000000007       13.42339376135266                       0
    57   1      1.0000000000000009       14.28941916479582                       0
    58   1      1.5000000000000009      15.155444569280718                       0
    59   1      1.0000000000000009      16.021469972658767                       0
    60   1      1.5000000000000009      16.887495377208776                       0
    61   1      1.0000000000000011       19.44097471368266                       0
    62   1      1.5000000000000011      20.307000117028156                       0
    63   1      1.0000000000000011      21.173025521545611                       0
    64   1      1.5000000000000011      22.039050924956218                       0
    65   1      1.0000000000000013      22.905076329408566                       0
    66   1      1.5000000000000013      23.771101732884279                       0
    67   1      1.0000000000000013      24.637127137271513                       0
    68   1      1.5000000000000013      25.503152540812334                       0
    69   1      1.0000000000000016      26.369177945134464                       0
    70   1      1.5000000000000016      27.235203348740395                       0
    71   1      1.0000000000000016      28.101228752997411                       0
    72   1      1.5000000000000016      28.967254156668449                       0
    73   1      1.0000000000000018      29.833279560860362                       0
    74   1      1.5000000000000018      30.699304964596511                       0
    75   1      1.0000000000000018      31.565330368723313                       0
    76   1      1.5000000000000018      32.431355772524576                       0
    77   1       1.000000000000002      33.297381176586264                       0
    78   1       1.500000000000002       34.16340658045263                       0
    79   1       1.000000000000002      35.029431984449218                       0
    80   1       1.500000000000002      35.895457388380692                       0
    81   1                       2      0.4330127018922193                       0
    82   1                     2.5      1.2990381059445757                       0
    83   1                       2      2.1650635098998015                       0
    84   1                     2.5      3.0310889140492892                       0
    85   1                       2      3.8971143179073842                       0
    86   1                     2.5      4.7631397221540013                       0
    87   1      2.0000000000000004      5.6291651259149669                       0
    88   1      2.5000000000000004      6.4951905302587143                       0
    89   1      2.0000000000000004      7.3612159339225487                       0
    90   1      2.5000000000000004      8.2272413383634273                       0
    91   1      2.0000000000000004      9.0932667419301314                       0
    92   1      2.5000000000000004      9.9592921464681403                       0
    93   1      2.0000000000000004      10.825317549937715                       0
    94   1      2.5000000000000004      11.691342954572855                       0
    95   1      2.0000000000000009      12.557368357945297                       0
    96   1      2.5000000000000009      13.423393762677568                       0
    97   1      2.0000000000000009      14.289419165952879                       0
    98   1      2.5000000000000009      15.155444570782279                       0
    99   1      2.0000000000000009       16.02146997396046                       0
   100   1      2.5000000000000009      16.887495378886992                       0
   101   1      2.0000000000000009      19.440974712308655                       0
   102   1      2.5000000000000009      20.307000115438271                       0
   103   1      2.0000000000000013      21.173025520316237                       0
   104   1      2.5000000000000013      22.039050923542984                       0
   105   1      2.0000000000000013      22.905076328323823                       0
   106   1      2.5000000000000013      23.771101731647697                       0
   107   1      2.0000000000000013      24.637127136331401                       0
   108   1      2.5000000000000013       25.50315253975241                       0
   109   1      2.0000000000000013      26.369177944338986                       0
   110   1      2.5000000000000013      27.235203347857123                       0
   111   1      2.0000000000000018      28.101228752346564                       0
   112   1      2.5000000000000018      28.967254155961832                       0
   113   1      2.0000000000000018       29.83327956035415                       0
   114   1      2.5000000000000018      30.699304964066549                       0
   115   1      2.0000000000000018      31.565330368361732                       0
   116   1      2.5000000000000018      32.431355772171266                       0
   117   1      2.0000000000000018      33.297381176369313                       0
   118   1      2.5000000000000018      34.163406580275975                       0
   119   1      2.0000000000000022      35.029431984376899                       0
   120   1      2.5000000000000022      35.895457388380692                       0
   121   1                       3      0.4330127018922193                       0
   122   1                     3.5      1.2990381060763445                       0
   123   1                       3      2.1650635101155675                       0
   124   1                     3.5      3.0310889144445943                       0
   125   1                       3      3.8971143183389154                       0
   126   1                     3.5       4.763139722812844                       0
   127   1      3.0000000000000004      5.6291651265622642                       0
   128   1      3.5000000000000004      6.4951905311810947                       0
   129   1      3.0000000000000004      7.3612159347856121                       0
   130   1      3.5000000000000004      8.2272413395493444                       0
   131   1      3.0000000000000004      9.0932667430089609                       0
   132   1      3.5000000000000004       9.959292147917596                       0
   133   1      3.0000000000000004      10.825317551232311                       0
   134   1      3.5000000000000004      11.691342956285848                       0
   135   1      3.0000000000000009      12.557368359455658                       0
   136   1      3.5000000000000009      13.423393764654096                       0
   137   1      3.0000000000000009      14.289419167679007                       0
   138   1      3.5000000000000009      15.155444573022345                       0
   139   1      3.0000000000000009      16.021469975902352                       0
   140   1      3.5000000000000009      16.887495381390593                       0
   141   1      3.0000000000000009      19.440974710258878                       0
   142   1      3.5000000000000009      20.307000113066437                       0
   143   1      3.0000000000000013      21.173025518482227                       0
   144   1      3.5000000000000013      22.039050921434686                       0
   145   1      3.0000000000000013      22.905076326705576                       0
   146   1      3.5000000000000013      23.771101729802936                       0
   147   1      3.0000000000000013      24.637127134928924                       0
   148   1      3.5000000000000013      25.503152538171186                       0
   149   1      3.0000000000000013      26.369177943152273                       0
   150   1      3.5000000000000013      27.235203346539436                       0
   151   1      3.0000000000000018      28.101228751375618                       0
   152   1      3.5000000000000018      28.967254154907685                       0
   153   1      3.0000000000000018      29.833279559598967                       0
   154   1      3.5000000000000018      30.699304963275935                       0
   155   1      3.0000000000000018       31.56533036782232                       0
   156   1      3.5000000000000018      32.431355771644192                       0
   157   1      3.0000000000000018      33.297381176045668                       0
   158   1      3.5000000000000018      34.163406580012442                       0
   159   1      3.0000000000000022      35.029431984269017                       0
   160   1      3.5000000000000022      35.895457388380692                       0
   161   1                       4      0.4330127018922193                       0
   162   1                     4.5      1.2990381062729202                       0
   163   1                       4      2.1650635104374527                       0
   164   1                     4.5      3.0310889150343217                       0
   165   1                       4      3.8971143189826858                       0
   166   1                     4.5      4.7631397237957227                       0
   167   1                       4      5.6291651275279193                       0
   168   1                     4.5      6.4951905325571238                       0
   169   1                       4      7.3612159360731528                       0
   170   1                     4.5      8.2272413413185248                       0
   171   1      4.0000000000000009      9.0932667446183864                       0
   172   1      4.5000000000000009      9.9592921500799267                       0
   173   1      4.0000000000000009      10.825317553163622                       0
   174   1      4.5000000000000009       11.69134295884133                       0
   175   1      4.0000000000000009      12.557368361708853                       0
   176   1      4.5000000000000009      13.423393767602731                       0
   177   1      4.0000000000000009      14.289419170254087                       0
   178   1      4.5000000000000009      15.155444576364133                       0
   179   1      4.0000000000000009       16.02146997879932                       0
   180   1      4.5000000000000009      16.887495385125533                       0
   181   1      4.0000000000000009      19.440974707200969                       0
   182   1      4.5000000000000009      20.307000109528072                       0
   183   1      4.0000000000000009      21.173025515746204                       0
   184   1      4.5000000000000009      22.039050918289476                       0
   185   1      4.0000000000000009      22.905076324291439                       0
   186   1      4.5000000000000009       23.77110172705088                       0
   187   1      4.0000000000000018      24.637127132836671                       0
   188   1      4.5000000000000018      25.503152535812276                       0
   189   1      4.0000000000000018      26.369177941381906                       0
   190   1      4.5000000000000018       27.23520334457368                       0
   191   1      4.0000000000000018      28.101228749927134                       0
   192   1      4.5000000000000018       28.96725415333508                       0
   193   1      4.0000000000000018       29.83327955847237                       0
   194   1      4.5000000000000018      30.699304962096484                       0
   195   1      4.0000000000000018      31.565330367017605                       0
   196   1      4.5000000000000018      32.431355770857884                       0
   197   1      4.0000000000000018       33.29738117556284                       0
   198   1      4.5000000000000018      34.163406579619284                       0
   199   1      4.0000000000000018      35.029431984108072                       0
   200   1      4.5000000000000018      35.895457388380692                       0
   201   1                       5      0.4330127018922193                       0
   202   1                     5.5      1.2990381065661765                       0
   203   1                       5      2.1650635109176486                       0
   204   1                     5.5      3.0310889159140908                       0
   205   1                       5      3.8971143199430784                       0
   206   1                     5.5      4.7631397252620049                       0
   207   1                       5      5.6291651289685083                       0
   208   1                     5.5       6.495190534609919                       0
   209   1                       5      7.3612159379939373                       0
   210   1                     5.5       8.227241343957834                       0
   211   1      5.0000000000000009      9.0932667470193671                       0
   212   1      5.5000000000000009      9.9592921533057481                       0
   213   1      5.0000000000000009      10.825317556044798                       0
   214   1      5.5000000000000009      11.691342962653664                       0
   215   1      5.0000000000000009      12.557368365070227                       0
   216   1      5.5000000000000009      13.423393772001578                       0
   217   1      5.0000000000000009      14.289419174095656                       0
   218   1      5.5000000000000009       15.15544458134949                       0
   219   1      5.0000000000000009      16.021469983121083                       0
   220   1      5.5000000000000009      16.887495390697403                       0
   221   1      5.0000000000000009      19.440974702639107                       0
   222   1      5.5000000000000009      20.307000104249457                       0
   223   1      5.0000000000000009      21.173025511664537                       0
   224   1      5.5000000000000009      22.039050913597375                       0
   225   1      5.0000000000000009      22.905076320689968                       0
   226   1      5.5000000000000009      23.771101722945289                       0
   227   1      5.0000000000000018      24.637127129715395                       0
   228   1      5.5000000000000018        25.5031525322932                       0
   229   1      5.0000000000000018      26.369177938740826                       0
   230   1      5.5000000000000018      27.235203341641117                       0
   231   1      5.0000000000000018      28.101228747766253                       0
   232   1      5.5000000000000018      28.967254150989028                       0
   233   1      5.0000000000000018      29.833279556791684                       0
   234   1      5.5000000000000018      30.699304960336942                       0
   235   1      5.0000000000000018      31.565330365817115                       0
   236   1      5.5000000000000018      32.431355769684863                       0
   237   1      5.0000000000000018      33.297381174842549                       0
   238   1      5.5000000000000018      34.163406579032774                       0
   239   1      5.0000000000000018       35.02943198386798                       0
   240   1      5.5000000000000018      35.895457388380692                       0
   241   1                       6      0.4330127018922193                       0
   242   1                     6.5      1.2990381070036636                       0
   243   1                       6      2.1650635116340169                       0
   244   1                     6.5       3.031088917226552                       0
   245   1                       6       3.897114321375815                       0
   246   1                     6.5        4.76313972744944                       0
   247   1                       6      5.6291651311176132                       0
   248   1                     6.5      6.4951905376723289                       0
   249   1                       6      7.3612159408594104                       0
   250   1                     6.5      8.2272413478952178                       0
   251   1      6.0000000000000009      9.0932667506012077                       0
   252   1      6.5000000000000009      9.9592921581181066                       0
   253   1      6.0000000000000009      10.825317560343008                       0
   254   1      6.5000000000000009      11.691342968340997                       0
   255   1      6.0000000000000009      12.557368370084806                       0
   256   1      6.5000000000000009      13.423393778563884                       0
   257   1      6.0000000000000009      14.289419179826602                       0
   258   1      6.5000000000000009      15.155444588786773                       0
   259   1      6.0000000000000009      16.021469989568399                       0
   260   1      6.5000000000000009      16.887495399009659                       0
   261   1      6.0000000000000009      19.440974695833606                       0
   262   1      6.5000000000000009       20.30700009637469                       0
   263   1      6.0000000000000009      21.173025505575406                       0
   264   1      6.5000000000000009      22.039050906597581                       0
   265   1      6.0000000000000009      22.905076315317206                       0
   266   1      6.5000000000000009      23.771101716820468                       0
   267   1      6.0000000000000018      24.637127125058999                       0
   268   1      6.5000000000000018      25.503152527043355                       0
   269   1      6.0000000000000018      26.369177934800799                       0
   270   1      6.5000000000000018      27.235203337266245                       0
   271   1      6.0000000000000018      28.101228744542595                       0
   272   1      6.5000000000000018      28.967254147489133                       0
   273   1      6.0000000000000018      29.833279554284395                       0
   274   1      6.5000000000000018       30.69930495771202                       0
   275   1      6.0000000000000018      31.565330364026195                       0
   276   1      6.5000000000000018       32.43135576793491                       0
   277   1      6.0000000000000018      33.297381173767995                       0
   278   1      6.5000000000000018      34.163406578157797                       0
   279   1      6.0000000000000018      35.029431983509795                       0
   280   1      6.5000000000000018      35.895457388380692                       0
   281   1                       7      0.4330127018922193                       0
   282   1                     7.5      1.2990381076563176                       0
   283   1                       7      2.1650635127027131                       0
   284   1                     7.5      3.0310889191845147                       0
   285   1                       7      3.8971143235132066                       0
   286   1                     7.5      4.7631397307127106                       0
   287   1                       7       5.629165134323701                       0
   288   1                     7.5      6.4951905422409082                       0
   289   1                       7      7.3612159451341945                       0
   290   1                     7.5       8.227241353769104                       0
   291   1      7.0000000000000009       9.093266755944688                       0
   292   1      7.5000000000000009      9.9592921652973025                       0
   293   1      7.0000000000000009      10.825317566755183                       0
   294   1      7.5000000000000009      11.691342976825501                       0
   295   1      7.0000000000000009      12.557368377565677                       0
   296   1      7.5000000000000009      13.423393788353696                       0
   297   1      7.0000000000000009       14.28941918837617                       0
   298   1      7.5000000000000009      15.155444599881893                       0
   299   1      7.0000000000000009      16.021469999186664                       0
   300   1      7.5000000000000009      16.887495411410089                       0
   301   1      7.0000000000000009      19.440974685680995                       0
   302   1      7.5000000000000009      20.307000084626914                       0
   303   1      7.0000000000000009      21.173025496491491                       0
   304   1      7.5000000000000009      22.039050896155114                       0
   305   1      7.0000000000000009      22.905076307301986                       0
   306   1      7.5000000000000009      23.771101707683311                       0
   307   1      7.0000000000000018      24.637127118112478                       0
   308   1      7.5000000000000018      25.503152519211504                       0
   309   1      7.0000000000000018      26.369177928922973                       0
   310   1      7.5000000000000018      27.235203330739704                       0
   311   1      7.0000000000000018      28.101228739733465                       0
   312   1      7.5000000000000018      28.967254142267898                       0
   313   1      7.0000000000000018       29.83327955054396                       0
   314   1      7.5000000000000018      30.699304953796098                       0
   315   1      7.0000000000000018      31.565330361354455                       0
   316   1      7.5000000000000018      32.431355765324298                       0
   317   1      7.0000000000000018      33.297381172164947                       0
   318   1      7.5000000000000018      34.163406576852495                       0
   319   1      7.0000000000000018      35.029431982975446                       0
   320   1      7.5000000000000018      35.895457388380692                       0
   321   1                       8      0.4330127018922193                       0
   322   1                     8.5      1.2990381086299632                       0
   323   1                       8        2.16506351429702                       0
   324   1                     8.5      3.0310889221054511                       0
   325   1                       8      3.8971143267018213                       0
   326   1                     8.5      4.7631397355809382                       0
   327   1                       8      5.6291651391066226                       0
   328   1                     8.5      6.4951905490564261                       0
   329   1                       8      7.3612159515114231                       0
   330   1                     8.5      8.2272413625319132                       0
   331   1                       8      9.0932667639162243                       0
   332   1                     8.5       9.959292176007402                       0
   333   1                       8      10.825317576321027                       0
   334   1                     8.5      11.691342989482893                       0
   335   1                       8      12.557368388725827                       0
   336   1                     8.5      13.423393802958378                       0
   337   1                       8      14.289419201130627                       0
   338   1                     8.5      15.155444616433867                       0
   339   1      8.0000000000000018      16.021470013535428                       0
   340   1      8.5000000000000018      16.887495429909354                       0
   341   1      8.0000000000000018      19.440974670535077                       0
   342   1      8.5000000000000018      20.307000067101296                       0
   343   1      8.0000000000000018      21.173025482939881                       0
   344   1      8.5000000000000018      22.039050880576784                       0
   345   1      8.0000000000000018      22.905076295344681                       0
   346   1      8.5000000000000018      23.771101694052273                       0
   347   1      8.0000000000000018      24.637127107749482                       0
   348   1      8.5000000000000018      25.503152507527759                       0
   349   1      8.0000000000000018      26.369177920154282                       0
   350   1      8.5000000000000018      27.235203321003247                       0
   351   1      8.0000000000000018      28.101228732559083                       0
   352   1      8.5000000000000018      28.967254134478733                       0
   353   1      8.0000000000000018      29.833279544963883                       0
   354   1      8.5000000000000018      30.699304947954221                       0