(written by ASE)

4000 atoms
1 atom types

0.0      102.59999999999999  xlo xhi
0.0      34.641016151377542  ylo yhi
0.0                    0.25  zlo zhi

Atoms # atomic

     1   1     0.24999999999999845 -2.8465565998907513e-33                       0
     2   1     0.75004563288210924      0.8660254037844386                       0
     3   1     0.24999999999999845      1.7320508075688772                       0
     4   1     0.75009091859703469       2.598076211353316                       0
     5   1     0.24999999999999867      3.4641016151377544                       0
     6   1     0.75018052237638377      4.3301270189221928                       0
     7   1     0.24999999999999867       5.196152422706632                       0
     8   1      0.7503560110066908      6.0621778264910704                       0
     9   1     0.24999999999999889      6.9282032302755088                       0
    10   1     0.75069292059166282      7.7942286340599471                       0
    11   1     0.24999999999999889      8.6602540378443855                       0
    12   1      0.7513156578754131      9.5262794416288248                       0
    13   1     0.24999999999999911      10.392304845413264                       0
    14   1     0.75238994901334943      11.258330249197703                       0
    15   1     0.24999999999999911      12.124355652982141                       0
    16   1     0.75403983932692442       12.99038105676658                       0
    17   1     0.24999999999999933      13.856406460551018                       0
    18   1     0.75617038355803112      14.722431864335457                       0
    19   1     0.24999999999999956      15.588457268119894                       0
    20   1     0.75838114425211056      16.454482671904334                       0
    21   1     0.24999999999999956      17.320508075688771                       0
    22   1     0.76021096381973119      18.186533479473209                       0
    23   1     0.24999999999999956       19.05255888325765                       0
    24   1     0.76146267097639331      19.918584287042087                       0
    25   1     0.24999999999999978      20.784609690826528                       0
    26   1     0.76221137932670302      21.650635094610966                       0
    27   1     0.24999999999999978      22.516660498395403                       0
    28   1     0.76262378869619174      23.382685902179841                       0
    29   1                    0.25      24.248711305964282                       0
    30   1     0.76284069099410468      25.114736709748719                       0
    31   1                    0.25      25.980762113533157                       0
    32   1      0.7629519981709898      26.846787517317594                       0
    33   1     0.25000000000000022      27.712812921102035                       0
    34   1      0.7630083970554512      28.578838324886473                       0
    35   1     0.25000000000000022      29.444863728670914                       0
    36   1     0.76303679038865968      30.310889132455351                       0
    37   1     0.25000000000000044      31.176914536239789                       0
    38   1     0.76305103824783249      32.042939940024226                       0
    39   1     0.25000000000000044      32.908965343808667                       0
    40   1      0.7630581761963644      33.774990747593108                       0
    41   1      1.2500646112583627 -1.4233518677869523e-32                       0
    42   1       1.750136898646331      0.8660254037844386                       0
    43   1      1.2501288618676951      1.7320508075688772                       0
    44   1      1.7502727557911071       2.598076211353316                       0
    45   1       1.250256376032385      3.4641016151377544                       0
    46   1      1.7505415671291542      4.3301270189221928                       0
    47   1      1.2505076074545509       5.196152422706632                       0
    48   1      1.7510680330200752      6.0621778264910704                       0
    49   1       1.250995556347545      6.9282032302755088                       0
    50   1      1.7520787617749911      7.7942286340599471                       0
    51   1      1.2519174562377082      8.6602540378443855                       0
    52   1      1.7539469736262412      9.5262794416288248                       0
    53   1      1.2535717379056837      10.392304845413264                       0
    54   1      1.7571698470400505      11.258330249197703                       0
    55   1      1.2562829067718626      12.124355652982141                       0
    56   1      1.7621195179807754       12.99038105676658                       0
    57   1      1.2601280822230339      13.856406460551018                       0
    58   1      1.7685111506740949      14.722431864335457                       0
    59   1      1.2645959434341583      15.588457268119894                       0
    60   1      1.7751434327563329      16.454482671904334                       0
    61   1      1.2687281166443114      17.320508075688771                       0
    62   1      1.7806328914591951      18.186533479473209                       0
    63   1      1.2718174294378903       19.05255888325765                       0
    64   1      1.7843880129291807      19.918584287042087                       0
    65   1      1.2737793416019556      20.784609690826528                       0
    66   1      1.7866341379801105      21.650635094610966                       0
    67   1      1.2748992275917144      22.516660498395403                       0
    68   1      1.7878713660885763      23.382685902179841                       0
    69   1      1.2754998812130853      24.248711305964282                       0
    70   1      1.7885220729823146      25.114736709748719                       0
    71   1      1.2758113110701963      25.980762113533157                       0
    72   1      1.7888559945129703      26.846787517317594                       0
    73   1      1.2759699483049796      27.712812921102035                       0
    74   1      1.7890251911663539      28.578838324886473                       0
    75   1      1.2760500266695878      29.444863728670914                       0
    76   1      1.7891103711659788      30.310889132455351                       0
    77   1      1.2760902644993404      31.176914536239789                       0
    78   1      1.7891531147434976      32.042939940024226                       0
    79   1      1.2761104366623115      32.908965343808667                       0
    80   1      1.7891745285890928      33.774990747593108                       0
    81   1      2.2501292225167271 -2.5620480755848298e-32                       0
    82   1      2.7502281644105526      0.8660254037844386                       0
    83   1       2.250257723735392      1.7320508075688772                       0
    84   1      2.7504545929851796       2.598076211353316                       0
    85   1       2.250512752064771      3.4641016151377544                       0
    86   1      2.7509026118819246      4.3301270189221928                       0
    87   1      2.2510152149091036       5.196152422706632                       0
    88   1      2.7517800550334601      6.0621778264910704                       0
    89   1      2.2519911126950918      6.9282032302755088                       0
    90   1      2.7534646029583194      7.7942286340599471                       0
    91   1      2.2538349124754182      8.6602540378443855                       0
    92   1      2.7565782893770696      9.5262794416288248                       0
    93   1      2.2571434758113682      10.392304845413264                       0
    94   1      2.7619497450667514      11.258330249197703                       0
    95   1      2.2625658135437265      12.124355652982141                       0
    96   1      2.7701991966346267       12.99038105676658                       0
    97   1      2.2702561644460686      13.856406460551018                       0
    98   1      2.7808519177901587      14.722431864335457                       0
    99   1      2.2791918868683174      15.588457268119894                       0
   100   1      2.7919057212605551      16.454482671904334                       0
   101   1      2.2874562332886232      17.320508075688771                       0
   102   1      2.8010548190986588      18.186533479473209                       0
   103   1       2.293634858875782       19.05255888325765                       0
   104   1      2.8073133548819689      19.918584287042087                       0
   105   1      2.2975586832039117      20.784609690826528                       0
   106   1      2.8110568966335179      21.650635094610966                       0
   107   1      2.2997984551834292      22.516660498395403                       0
   108   1      2.8131189434809611      23.382685902179841                       0
   109   1      2.3009997624261702      24.248711305964282                       0
   110   1      2.8142034549705244      25.114736709748719                       0
   111   1       2.301622622140393      25.980762113533157                       0
   112   1      2.8147599908549505      26.846787517317594                       0
   113   1      2.3019398966099591      27.712812921102035                       0
   114   1      2.8150419852772566      28.578838324886473                       0
   115   1      2.3021000533391756      29.444863728670914                       0
   116   1      2.8151839519432982      30.310889132455351                       0
   117   1      2.3021805289986803      31.176914536239789                       0
   118   1      2.8152551912391619      32.042939940024226                       0
   119   1       2.302220873324623      32.908965343808667                       0
   120   1      2.8152908809818218      33.774990747593108                       0
   121   1      3.2501938337750915 -3.7007442833827072e-32                       0
   122   1      3.7503194301747746      0.8660254037844386                       0
   123   1      3.2503865856030889      1.7320508075688772                       0
   124   1      3.7506364301792519       2.598076211353316                       0
   125   1      3.2507691280971578      3.4641016151377544                       0
   126   1      3.7512636566346944      4.3301270189221928                       0
   127   1      3.2515228223636559       5.196152422706632                       0
   128   1      3.7524920770468442      6.0621778264910704                       0
   129   1      3.2529866690426381      6.9282032302755088                       0
   130   1      3.7548504441416477      7.7942286340599471                       0
   131   1      3.2557523687131278      8.6602540378443855                       0
   132   1      3.7592096051278978      9.5262794416288248                       0
   133   1      3.2607152137170532      10.392304845413264                       0
   134   1      3.7667296430934525      11.258330249197703                       0
   135   1      3.2688487203155905      12.124355652982141                       0
   136   1      3.7782788752884775       12.99038105676658                       0
   137   1      3.2803842466691036      13.856406460551018                       0
   138   1      3.7931926849062223      14.722431864335457                       0
   139   1      3.2937878303024766      15.588457268119894                       0
   140   1      3.8086680097647778      16.454482671904334                       0
   141   1      3.3061843499329351      17.320508075688771                       0
   142   1      3.8214767467381221      18.186533479473209                       0
   143   1       3.315452288313673       19.05255888325765                       0
   144   1      3.8302386968347562      19.918584287042087                       0
   145   1      3.3213380248058679      20.784609690826528                       0
   146   1       3.835479655286925      21.650635094610966                       0
   147   1       3.324697682775144      22.516660498395403                       0
   148   1      3.8383665208733451      23.382685902179841                       0
   149   1      3.3264996436392558      24.248711305964282                       0
   150   1      3.8398848369587344      25.114736709748719                       0
   151   1      3.3274339332105893      25.980762113533157                       0
   152   1       3.840663987196931      26.846787517317594                       0
   153   1      3.3279098449149389      27.712812921102035                       0
   154   1      3.8410587793881588      28.578838324886473                       0
   155   1      3.3281500800087631      29.444863728670914                       0
   156   1      3.8412575327206171      30.310889132455351                       0
   157   1      3.3282707934980209      31.176914536239789                       0
   158   1      3.8413572677348271      32.042939940024226                       0
   159   1      3.3283313099869343      32.908965343808667                       0
   160   1      3.8414072333745497      33.774990747593108                       0
   161   1       4.250258445033456 -4.8394404911805847e-32                       0
   162   1      4.7504106959389958      0.8660254037844386                       0
   163   1      4.2505154474707858      1.7320508075688772                       0
   164   1      4.7508182673733241       2.598076211353316                       0
   165   1      4.2510255041295437      3.4641016151377544                       0
   166   1      4.7516247013874651      4.3301270189221928                       0
   167   1      4.2520304298182072       5.196152422706632                       0
   168   1      4.7532040990602287      6.0621778264910704                       0
   169   1      4.2539822253901836      6.9282032302755088                       0
   170   1      4.7562362853249756      7.7942286340599471                       0
   171   1      4.2576698249508373      8.6602540378443855                       0
   172   1      4.7618409208787256      9.5262794416288248                       0
   173   1      4.2642869516227382      10.392304845413264                       0
   174   1      4.7715095411201531      11.258330249197703                       0
   175   1       4.275131627087454      12.124355652982141                       0
   176   1      4.7863585539423283       12.99038105676658                       0
   177   1      4.2905123288921381      13.856406460551018                       0
   178   1      4.8055334520222868      14.722431864335457                       0
   179   1      4.3083837737366357      15.588457268119894                       0
   180   1      4.8254302982689996      16.454482671904334                       0
   181   1      4.3249124665772474      17.320508075688771                       0
   182   1      4.8418986743775854      18.186533479473209                       0
   183   1       4.337269717751564       19.05255888325765                       0
   184   1      4.8531640387875434      19.918584287042087                       0
   185   1      4.3451173664078233      20.784609690826528                       0
   186   1      4.8599024139403308      21.650635094610966                       0
   187   1      4.3495969103668592      22.516660498395403                       0
   188   1      4.8636140982657299      23.382685902179841                       0
   189   1      4.3519995248523422      24.248711305964282                       0
   190   1      4.8655662189469444      25.114736709748719                       0
   191   1      4.3532452442807852      25.980762113533157                       0
   192   1      4.8665679835389106      26.846787517317594                       0
   193   1      4.3538797932199174      27.712812921102035                       0
   194   1      4.8670755734990614      28.578838324886473                       0
   195   1      4.3542001066783502      29.444863728670914                       0
   196   1      4.8673311134979365      30.310889132455351                       0
   197   1      4.3543610579973606      31.176914536239789                       0
   198   1      4.8674593442304914      32.042939940024226                       0
   199   1      4.3544417466492451      32.908965343808667                       0
   200   1      4.8675235857672767      33.774990747593108                       0
   201   1      5.2503230562918208 -5.9781366989784627e-32                       0
   202   1      5.7505019617032183      0.8660254037844386                       0
   203   1      5.2506443093384831      1.7320508075688772                       0
   204   1       5.751000104567396       2.598076211353316                       0
   205   1      5.2512818801619296      3.4641016151377544                       0
   206   1      5.7519857461402353      4.3301270189221928                       0
   207   1      5.2525380372727604       5.196152422706632                       0
   208   1      5.7539161210736136      6.0621778264910704                       0
   209   1      5.2549777817377299      6.9282032302755088                       0
   210   1      5.7576221265083039      7.7942286340599471                       0
   211   1      5.2595872811885469      8.6602540378443855                       0
   212   1      5.7644722366295547      9.5262794416288248                       0
   213   1      5.2678586895284223      10.392304845413264                       0
   214   1      5.7762894391468542      11.258330249197703                       0
   215   1      5.2814145338593175      12.124355652982141                       0
   216   1      5.7944382325961801       12.99038105676658                       0
   217   1      5.3006404111151726      13.856406460551018                       0
   218   1      5.8178742191383499      14.722431864335457                       0
   219   1      5.3229797171707949      15.588457268119894                       0
   220   1      5.8421925867732227      16.454482671904334                       0
   221   1      5.3436405832215588      17.320508075688771                       0
   222   1        5.86232060201705      18.186533479473209                       0
   223   1      5.3590871471894541       19.05255888325765                       0
   224   1      5.8760893807403303      19.918584287042087                       0
   225   1        5.36889670800978      20.784609690826528                       0
   226   1      5.8843251725937389      21.650635094610966                       0
   227   1      5.3744961379585732      22.516660498395403                       0
   228   1      5.8888616756581147      23.382685902179841                       0
   229   1      5.3774994060654269      24.248711305964282                       0
   230   1       5.891247600935154      25.114736709748719                       0
   231   1      5.3790565553509815      25.980762113533157                       0
   232   1      5.8924719798808916      26.846787517317594                       0
   233   1      5.3798497415248967      27.712812921102035                       0
   234   1      5.8930923676099631      28.578838324886473                       0
   235   1      5.3802501333479382      29.444863728670914                       0
   236   1      5.8934046942752563      30.310889132455351                       0
   237   1      5.3804513224967003      31.176914536239789                       0
   238   1      5.8935614207261562      32.042939940024226                       0
   239   1      5.3805521833115559      32.908965343808667                       0
   240   1      5.8936399381600069      33.774990747593108                       0
   241   1      6.2503876675501839 -7.1168329067763391e-32                       0
   242   1       6.750593227467439      0.8660254037844386                       0
   243   1      6.2507731712061787      1.7320508075688772                       0
   244   1      6.7511819417614696       2.598076211353316                       0
   245   1      6.2515382561943174      3.4641016151377544                       0
   246   1      6.7523467908930055      4.3301270189221928                       0
   247   1      6.2530456447273117       5.196152422706632                       0
   248   1      6.7546281430869968      6.0621778264910704                       0
   249   1      6.2559733380852762      6.9282032302755088                       0
   250   1      6.7590079676916321      7.7942286340599471                       0
   251   1      6.2615047374262573      8.6602540378443855                       0
   252   1      6.7671035523803837      9.5262794416288248                       0
   253   1      6.2714304274341082      10.392304845413264                       0
   254   1      6.7810693371735553      11.258330249197703                       0
   255   1       6.287697440631181      12.124355652982141                       0
   256   1        6.80251791125003       12.99038105676658                       0
   257   1      6.3107684933382071      13.856406460551018                       0
   258   1      6.8302149862544148      14.722431864335457                       0
   259   1      6.3375756606049549      15.588457268119894                       0
   260   1      6.8589548752774459      16.454482671904334                       0
   261   1      6.3623686998658702      17.320508075688771                       0
   262   1      6.8827425296565128      18.186533479473209                       0
   263   1       6.380904576627346       19.05255888325765                       0
   264   1      6.8990147226931189      19.918584287042087                       0
   265   1       6.392676049611735      20.784609690826528                       0
   266   1      6.9087479312471469      21.650635094610966                       0
   267   1      6.3993953655502889      22.516660498395403                       0
   268   1      6.9141092530504995      23.382685902179841                       0
   269   1      6.4029992872785133      24.248711305964282                       0
   270   1      6.9169289829233644      25.114736709748719                       0
   271   1      6.4048678664211778      25.980762113533157                       0
   272   1      6.9183759762228725      26.846787517317594                       0
   273   1      6.4058196898298778      27.712812921102035                       0
   274   1      6.9191091617208667      28.578838324886473                       0
   275   1      6.4063001600175262      29.444863728670914                       0
   276   1      6.9194782750525743      30.310889132455351                       0
   277   1      6.4065415869960418      31.176914536239789                       0
   278   1      6.9196634972218209      32.042939940024226                       0
   279   1      6.4066626199738668      32.908965343808667                       0
   280   1      6.9197562905527352      33.774990747593108                       0
   281   1      7.2504522788085488 -8.2555291145742166e-32                       0
   282   1      7.7506844932316614      0.8660254037844386                       0
   283   1       7.250902033073876      1.7320508075688772                       0
   284   1      7.7513637789555414       2.598076211353316                       0
   285   1      7.2517946322267033      3.4641016151377544                       0
   286   1      7.7527078356457757      4.3301270189221928                       0
   287   1      7.2535532521818649       5.196152422706632                       0
   288   1      7.7553401651003817      6.0621778264910704                       0
   289   1      7.2569688944328217      6.9282032302755088                       0
   290   1      7.7603938088749604      7.7942286340599471                       0
   291   1      7.2634221936639669      8.6602540378443855                       0
   292   1      7.7697348681312111      9.5262794416288248                       0
   293   1      7.2750021653397923      10.392304845413264                       0
   294   1      7.7858492352002564      11.258330249197703                       0
   295   1      7.2939803474030445      12.124355652982141                       0
   296   1      7.8105975899038818       12.99038105676658                       0
   297   1      7.3208965755612425      13.856406460551018                       0
   298   1      7.8425557533704779      14.722431864335457                       0
   299   1      7.3521716040391123      15.588457268119894                       0
   300   1      7.8757171637816672      16.454482671904334                       0
   301   1      7.3810968165101833      17.320508075688771                       0
   302   1      7.9031644572959774      18.186533479473209                       0
   303   1      7.4027220060652361       19.05255888325765                       0
   304   1      7.9219400646459057      19.918584287042087                       0
   305   1      7.4164553912136917      20.784609690826528                       0
   306   1      7.9331706899005532      21.650635094610966                       0
   307   1      7.4242945931420028      22.516660498395403                       0
   308   1      7.9393568304428825      23.382685902179841                       0
   309   1       7.428499168491598      24.248711305964282                       0
   310   1      7.9426103649115731      25.114736709748719                       0
   311   1      7.4306791774913741      25.980762113533157                       0
   312   1      7.9442799725648516      26.846787517317594                       0
   313   1      7.4317896381348572      27.712812921102035                       0
   314   1      7.9451259558317684      28.578838324886473                       0
   315   1      7.4323501866871133      29.444863728670914                       0
   316   1      7.9455518558298941      30.310889132455351                       0
   317   1      7.4326318514953815      31.176914536239789                       0
   318   1      7.9457655737174857      32.042939940024226                       0
   319   1      7.4327730566361776      32.908965343808667                       0
   320   1      7.9458726429454618      33.774990747593108                       0
   321   1      8.2505168900669137 -9.3942253223720941e-32                       0
   322   1      8.7507757589958821      0.8660254037844386                       0
   323   1      8.2510308949415734      1.7320508075688772                       0
   324   1      8.7515456161496132       2.598076211353316                       0
   325   1      8.2520510082590892      3.4641016151377544                       0
   326   1      8.7530688803985459      4.3301270189221928                       0
   327   1      8.2540608596364162       5.196152422706632                       0
   328   1      8.7560521871137666      6.0621778264910704                       0
   329   1      8.2579644507803689      6.9282032302755088                       0
   330   1      8.7617796500582887      7.7942286340599471                       0
   331   1      8.2653396499016747      8.6602540378443855                       0
   332   1      8.7723661838820384      9.5262794416288248                       0
   333   1      8.2785739032454764      10.392304845413264                       0
   334   1      8.7906291332269557      11.258330249197703                       0
   335   1      8.3002632541749062      12.124355652982141                       0
   336   1      8.8186772685577317       12.99038105676658                       0
   337   1      8.3310246577842761      13.856406460551018                       0
   338   1      8.8548965204865411      14.722431864335457                       0
   339   1      8.3667675474732732      15.588457268119894                       0
   340   1      8.8924794522858903      16.454482671904334                       0
   341   1      8.3998249331544947      17.320508075688771                       0
   342   1       8.923586384935442      18.186533479473209                       0
   343   1       8.424539435503128       19.05255888325765                       0
   344   1      8.9448654065986943      19.918584287042087                       0
   345   1      8.4402347328156484      20.784609690826528                       0
   346   1      8.9575934485539612      21.650635094610966                       0
   347   1      8.4491938207337185      22.516660498395403                       0
   348   1      8.9646044078352674      23.382685902179841                       0
   349   1      8.4539990497046826      24.248711305964282                       0
   350   1      8.9682917468997836      25.114736709748719                       0
   351   1      8.4564904885615704      25.980762113533157                       0
   352   1      8.9701839689068326      26.846787517317594                       0
   353   1      8.4577595864398365      27.712812921102035                       0
   354   1      8.9711427499426719      28.578838324886473                       0