(written by ASE)

4000 atoms
1 atom types

0.0      101.68745393889536  xlo xhi
0.0      34.641016151377542  ylo yhi
0.0                    0.25  zlo zhi

Atoms # atomic

     1   1     0.24999999999999534                       0                       0
     2   1      0.7513620412740043      0.8660254037844386                       0
     3   1     0.24999999999999545      1.7320508075688772                       0
     4   1     0.75234652894202803       2.598076211353316                       0
     5   1     0.24999999999999556      3.4641016151377544                       0
     6   1      0.7536751783024852      4.3301270189221928                       0
     7   1     0.24999999999999567       5.196152422706632                       0
     8   1      0.7551272166841575      6.0621778264910704                       0
     9   1     0.24999999999999578      6.9282032302755088                       0
    10   1     0.75638994079602118      7.7942286340599471                       0
    11   1     0.24999999999999589      8.6602540378443855                       0
    12   1     0.75728762781047121      9.5262794416288248                       0
    13   1     0.24999999999999589      10.392304845413264                       0
    14   1     0.75783839384052443      11.258330249197703                       0
    15   1       0.249999999999996      12.124355652982141                       0
    16   1     0.75814632574687379       12.99038105676658                       0
    17   1     0.24999999999999611      13.856406460551018                       0
    18   1     0.75830960075905707      14.722431864335457                       0
    19   1     0.24999999999999634      15.588457268119894                       0
    20   1     0.75839374525122316      16.454482671904334                       0
    21   1     0.24999999999999645      17.320508075688771                       0
    22   1     0.75843647383080381      18.186533479473209                       0
    23   1     0.24999999999999656       19.05255888325765                       0
    24   1     0.75845800872573488      19.918584287042087                       0
    25   1     0.24999999999999667      20.784609690826528                       0
    26   1     0.75846882099128177      21.650635094610966                       0
    27   1     0.24999999999999678      22.516660498395403                       0
    28   1     0.75847423926889956      23.382685902179841                       0
    29   1     0.24999999999999689      24.248711305964282                       0
    30   1     0.75847695189524666      25.114736709748719                       0
    31   1     0.24999999999999689      25.980762113533157                       0
    32   1     0.75847830930344118      26.846787517317594                       0
    33   1       0.249999999999997      27.712812921102035                       0
    34   1     0.75847898839251904      28.578838324886473                       0
    35   1     0.24999999999999711      29.444863728670914                       0
    36   1     0.75847932808887319      30.310889132455351                       0
    37   1     0.24999999999999722      31.176914536239789                       0
    38   1     0.75847949800278713      32.042939940024226                       0
    39   1     0.24999999999999734      32.908965343808667                       0
    40   1     0.75847958299007234      33.774990747593108                       0
    41   1       1.252021602415011                       0                       0
    42   1      1.7540861238220224      0.8660254037844386                       0
    43   1      1.2536116461144877      1.7320508075688772                       0
    44   1      1.7570395868260928       2.598076211353316                       0
    45   1      1.2559538363186915      3.4641016151377544                       0
    46   1      1.7610255349074646      4.3301270189221928                       0
    47   1      1.2588121589666184       5.196152422706632                       0
    48   1      1.7653816500524813      6.0621778264910704                       0
    49   1      1.2615967600474014      6.9282032302755088                       0
    50   1      1.7691698223880719      7.7942286340599471                       0
    51   1      1.2637736808938804      8.6602540378443855                       0
    52   1      1.7718628834314216      9.5262794416288248                       0
    53   1      1.2652008875779339      10.392304845413264                       0
    54   1      1.7735151815215815      11.258330249197703                       0
    55   1      1.2660317512613535      12.124355652982141                       0
    56   1       1.774438977240629       12.99038105676658                       0
    57   1      1.2664823520765458      13.856406460551018                       0
    58   1      1.7749288022771785      14.722431864335457                       0
    59   1      1.2667173644751082      15.588457268119894                       0
    60   1      1.7751812357536765      16.454482671904334                       0
    61   1      1.2668374414236334      17.320508075688771                       0
    62   1      1.7753094214924183      18.186533479473209                       0
    63   1      1.2668981490040365       19.05255888325765                       0
    64   1      1.7753740261772113      19.918584287042087                       0
    65   1      1.2669286772468764      20.784609690826528                       0
    66   1      1.7754064629738524      21.650635094610966                       0
    67   1       1.266943987778069      22.516660498395403                       0
    68   1      1.7754227178067055      23.382685902179841                       0
    69   1      1.2669516559407781      24.248711305964282                       0
    70   1      1.7754308556857463      25.114736709748719                       0
    71   1      1.2669554938799847      25.980762113533157                       0
    72   1      1.7754349279103296      26.846787517317594                       0
    73   1      1.2669574141289748      27.712812921102035                       0
    74   1      1.7754369651775632      28.578838324886473                       0
    75   1      1.2669583747305295      29.444863728670914                       0
    76   1      1.7754379842666252      30.310889132455351                       0
    77   1       1.266958855229154      31.176914536239789                       0
    78   1      1.7754384940083672      32.042939940024226                       0
    79   1      1.2669590955672216      32.908965343808667                       0
    80   1      1.7754387489702224      33.774990747593108                       0
    81   1       2.254043204830027                       0                       0
    82   1      2.7568102063700399      0.8660254037844386                       0
    83   1      2.2572232922289799      1.7320508075688772                       0
    84   1      2.7617326447101576       2.598076211353316                       0
    85   1       2.261907672637387      3.4641016151377544                       0
    86   1      2.7683758915124432      4.3301270189221928                       0
    87   1      2.2676243179332412       5.196152422706632                       0
    88   1      2.7756360834208049      6.0621778264910704                       0
    89   1      2.2731935200948072      6.9282032302755088                       0
    90   1      2.7819497039801226      7.7942286340599471                       0
    91   1      2.2775473617877648      8.6602540378443855                       0
    92   1      2.7864381390523718      9.5262794416288248                       0
    93   1      2.2804017751558714      10.392304845413264                       0
    94   1      2.7891919692026379      11.258330249197703                       0
    95   1       2.282063502522711      12.124355652982141                       0
    96   1      2.7907316287343846       12.99038105676658                       0
    97   1      2.2829647041530952      13.856406460551018                       0
    98   1      2.7915480037953002      14.722431864335457                       0
    99   1      2.2834347289502199      15.588457268119894                       0
   100   1      2.7919687262561301      16.454482671904334                       0
   101   1      2.2836748828472699      17.320508075688771                       0
   102   1      2.7921823691540326      18.186533479473209                       0
   103   1      2.2837962980080766       19.05255888325765                       0
   104   1      2.7922900436286877      19.918584287042087                       0
   105   1      2.2838573544937564      20.784609690826528                       0
   106   1       2.792344104956423      21.650635094610966                       0
   107   1      2.2838879755561416      22.516660498395403                       0
   108   1       2.792371196344511      23.382685902179841                       0
   109   1      2.2839033118815588      24.248711305964282                       0
   110   1      2.7923847594762456      25.114736709748719                       0
   111   1      2.2839109877599726      25.980762113533157                       0
   112   1      2.7923915465172184      26.846787517317594                       0
   113   1      2.2839148282579522      27.712812921102035                       0
   114   1      2.7923949419626073      28.578838324886473                       0
   115   1      2.2839167494610617      29.444863728670914                       0
   116   1      2.7923966404443772      30.310889132455351                       0
   117   1      2.2839177104583102      31.176914536239789                       0
   118   1       2.792397490013947      32.042939940024226                       0
   119   1      2.2839181911344459      32.908965343808667                       0
   120   1      2.7923979149503726      33.774990747593108                       0
   121   1      3.2560648072450422                       0                       0
   122   1      3.7595342889180579      0.8660254037844386                       0
   123   1      3.2608349383434723      1.7320508075688772                       0
   124   1      3.7664257025942227       2.598076211353316                       0
   125   1      3.2678615089560825      3.4641016151377544                       0
   126   1      3.7757262481174227      4.3301270189221928                       0
   127   1      3.2764364768998639       5.196152422706632                       0
   128   1      3.7858905167891286      6.0621778264910704                       0
   129   1      3.2847902801422126      6.9282032302755088                       0
   130   1      3.7947295855721732      7.7942286340599471                       0
   131   1      3.2913210426816497      8.6602540378443855                       0
   132   1      3.8010133946733227      9.5262794416288248                       0
   133   1      3.2956026627338089      10.392304845413264                       0
   134   1      3.8048687568836947      11.258330249197703                       0
   135   1      3.2980952537840684      12.124355652982141                       0
   136   1        3.80702428022814       12.99038105676658                       0
   137   1      3.2994470562296443      13.856406460551018                       0
   138   1      3.8081672053134219      14.722431864335457                       0
   139   1      3.3001520934253321      15.588457268119894                       0
   140   1      3.8087562167585838      16.454482671904334                       0
   141   1      3.3005123242709065      17.320508075688771                       0
   142   1      3.8090553168156474      18.186533479473209                       0
   143   1      3.3006944470121167       19.05255888325765                       0
   144   1      3.8092060610801641      19.918584287042087                       0
   145   1      3.3007860317406359      20.784609690826528                       0
   146   1      3.8092817469389932      21.650635094610966                       0
   147   1      3.3008319633342138      22.516660498395403                       0
   148   1       3.809319674882317      23.382685902179841                       0
   149   1      3.3008549678223398      24.248711305964282                       0
   150   1      3.8093386632667454      25.114736709748719                       0
   151   1        3.30086648163996      25.980762113533157                       0
   152   1      3.8093481651241068      26.846787517317594                       0
   153   1      3.3008722423869297      27.712812921102035                       0
   154   1      3.8093529187476514      28.578838324886473                       0
   155   1      3.3008751241915943      29.444863728670914                       0
   156   1      3.8093552966221291      30.310889132455351                       0
   157   1      3.3008765656874663      31.176914536239789                       0
   158   1      3.8093564860195266      32.042939940024226                       0
   159   1      3.3008772867016698      32.908965343808667                       0
   160   1      3.8093570809305226      33.774990747593108                       0
   161   1      4.2580864096600575                       0                       0
   162   1      4.7622583714660758      0.8660254037844386                       0
   163   1      4.2644465844579642      1.7320508075688772                       0
   164   1      4.7711187604782879       2.598076211353316                       0
   165   1      4.2738153452747785      3.4641016151377544                       0
   166   1      4.7830766047224014      4.3301270189221928                       0
   167   1      4.2852486358664859       5.196152422706632                       0
   168   1      4.7961449501574513      6.0621778264910704                       0
   169   1       4.296387040189618      6.9282032302755088                       0
   170   1      4.8075094671642233      7.7942286340599471                       0
   171   1      4.3050947235755341      8.6602540378443855                       0
   172   1      4.8155886502942735      9.5262794416288248                       0
   173   1      4.3108035503117463      10.392304845413264                       0
   174   1      4.8205455445647516      11.258330249197703                       0
   175   1      4.3141270050454263      12.124355652982141                       0
   176   1      4.8233169317218945       12.99038105676658                       0
   177   1      4.3159294083061948      13.856406460551018                       0
   178   1       4.824786406831544      14.722431864335457                       0
   179   1      4.3168694579004434      15.588457268119894                       0
   180   1       4.825543707261037      16.454482671904334                       0
   181   1      4.3173497656945434      17.320508075688771                       0
   182   1      4.8259282644772625      18.186533479473209                       0
   183   1      4.3175925960161567       19.05255888325765                       0
   184   1      4.8261220785316397      19.918584287042087                       0
   185   1      4.3177147089875154      20.784609690826528                       0
   186   1      4.8262193889215634      21.650635094610966                       0
   187   1      4.3177759511122868      22.516660498395403                       0
   188   1      4.8262681534201235      23.382685902179841                       0
   189   1      4.3178066237631221      24.248711305964282                       0
   190   1      4.8262925670572461      25.114736709748719                       0
   191   1      4.3178219755199478      25.980762113533157                       0
   192   1      4.8263047837309951      26.846787517317594                       0
   193   1      4.3178296565159071      27.712812921102035                       0
   194   1      4.8263108955326954      28.578838324886473                       0
   195   1       4.317833498922127      29.444863728670914                       0
   196   1      4.8263139527998806      30.310889132455351                       0
   197   1       4.317835420916623      31.176914536239789                       0
   198   1      4.8263154820251071      32.042939940024226                       0
   199   1      4.3178363822688937      32.908965343808667                       0
   200   1      4.8263162469106717      33.774990747593108                       0
   201   1      5.2601080120750741                       0                       0
   202   1      5.7649824540140937      0.8660254037844386                       0
   203   1       5.268058230572457      1.7320508075688772                       0
   204   1       5.775811818362353       2.598076211353316                       0
   205   1      5.2797691815934744      3.4641016151377544                       0
   206   1      5.7904269613273804      4.3301270189221928                       0
   207   1      5.2940607948331095       5.196152422706632                       0
   208   1      5.8063993835257754      6.0621778264910704                       0
   209   1      5.3079838002370234      6.9282032302755088                       0
   210   1      5.8202893487562744      7.7942286340599471                       0
   211   1      5.3188684044694199      8.6602540378443855                       0
   212   1      5.8301639059152244      9.5262794416288248                       0
   213   1      5.3260044378896847      10.392304845413264                       0
   214   1      5.8362223322458089      11.258330249197703                       0
   215   1      5.3301587563067834      12.124355652982141                       0
   216   1      5.8396095832156512       12.99038105676658                       0
   217   1      5.3324117603827439      13.856406460551018                       0
   218   1      5.8414056083496657      14.722431864335457                       0
   219   1      5.3335868223755565      15.588457268119894                       0
   220   1      5.8423311977634906      16.454482671904334                       0
   221   1      5.3341872071181804      17.320508075688771                       0
   222   1      5.8428012121388768      18.186533479473209                       0
   223   1      5.3344907450201973       19.05255888325765                       0
   224   1      5.8430380959831165      19.918584287042087                       0
   225   1      5.3346433862343954      20.784609690826528                       0
   226   1      5.8431570309041341      21.650635094610966                       0
   227   1       5.334719938890359      22.516660498395403                       0
   228   1      5.8432166319579295      23.382685902179841                       0
   229   1      5.3347582797039035      24.248711305964282                       0
   230   1      5.8432464708477454      25.114736709748719                       0
   231   1      5.3347774693999348      25.980762113533157                       0
   232   1      5.8432614023378839      26.846787517317594                       0
   233   1      5.3347870706448841      27.712812921102035                       0
   234   1      5.8432688723177399      28.578838324886473                       0
   235   1      5.3347918736526587      29.444863728670914                       0
   236   1      5.8432726089776335      30.310889132455351                       0
   237   1      5.3347942761457787      31.176914536239789                       0
   238   1      5.8432744780306862      32.042939940024226                       0
   239   1      5.3347954778361171      32.908965343808667                       0
   240   1      5.8432754128908222      33.774990747593108                       0
   241   1      6.2621296144900889                       0                       0
   242   1      6.7677065365621125      0.8660254037844386                       0
   243   1      6.2716698766869499      1.7320508075688772                       0
   244   1      6.7805048762464182       2.598076211353316                       0
   245   1      6.2857230179121704      3.4641016151377544                       0
   246   1      6.7977773179323613      4.3301270189221928                       0
   247   1      6.3028729537997314       5.196152422706632                       0
   248   1      6.8166538168940995      6.0621778264910704                       0
   249   1      6.3195805602844288      6.9282032302755088                       0
   250   1      6.8330692303483254      7.7942286340599471                       0
   251   1      6.3326420853633039      8.6602540378443855                       0
   252   1      6.8447391615361752      9.5262794416288248                       0
   253   1      6.3412053254676231      10.392304845413264                       0
   254   1      6.8518991199268662      11.258330249197703                       0
   255   1      6.3461905075681404      12.124355652982141                       0
   256   1      6.8559022347094061       12.99038105676658                       0
   257   1       6.348894112459293      13.856406460551018                       0
   258   1      6.8580248098677874      14.722431864335457                       0
   259   1      6.3503041868506678      15.588457268119894                       0
   260   1      6.8591186882659443      16.454482671904334                       0
   261   1      6.3510246485418165      17.320508075688771                       0
   262   1      6.8596741598004911      18.186533479473209                       0
   263   1       6.351388894024236       19.05255888325765                       0
   264   1      6.8599541134345934      19.918584287042087                       0
   265   1      6.3515720634812745      20.784609690826528                       0
   266   1      6.8600946728867047      21.650635094610966                       0
   267   1      6.3516639266684312      22.516660498395403                       0
   268   1      6.8601651104957355      23.382685902179841                       0
   269   1      6.3517099356446831      24.248711305964282                       0
   270   1      6.8602003746382447      25.114736709748719                       0
   271   1      6.3517329632799235      25.980762113533157                       0
   272   1      6.8602180209447727      26.846787517317594                       0
   273   1       6.351744484773862      27.712812921102035                       0
   274   1      6.8602268491027836      28.578838324886473                       0
   275   1      6.3517502483831922      29.444863728670914                       0
   276   1      6.8602312651553863      30.310889132455351                       0
   277   1      6.3517531313749362      31.176914536239789                       0
   278   1      6.8602334740362654      32.042939940024226                       0
   279   1      6.3517545734033423      32.908965343808667                       0
   280   1      6.8602345788709727      33.774990747593108                       0
   281   1      7.2641512169051055                       0                       0
   282   1      7.7704306191101296      0.8660254037844386                       0
   283   1      7.2752815228014409      1.7320508075688772                       0
   284   1      7.7851979341304833       2.598076211353316                       0
   285   1      7.2916768542308663      3.4641016151377544                       0
   286   1      7.8051276745373404      4.3301270189221928                       0
   287   1      7.3116851127663551       5.196152422706632                       0
   288   1      7.8269082502624219      6.0621778264910704                       0
   289   1      7.3311773203318342      6.9282032302755088                       0
   290   1      7.8458491119403746      7.7942286340599471                       0
   291   1      7.3464157662571878      8.6602540378443855                       0
   292   1      7.8593144171571243      9.5262794416288248                       0
   293   1      7.3564062130455596      10.392304845413264                       0
   294   1      7.8675759076079217      11.258330249197703                       0
   295   1      7.3622222588294992      12.124355652982141                       0
   296   1       7.872194886203161       12.99038105676658                       0
   297   1      7.3653764645358422      13.856406460551018                       0
   298   1      7.8746440113859073      14.722431864335457                       0
   299   1      7.3670215513257791      15.588457268119894                       0
   300   1      7.8759061787683979      16.454482671904334                       0
   301   1      7.3678620899654543      17.320508075688771                       0
   302   1      7.8765471074621054      18.186533479473209                       0
   303   1      7.3682870430282765       19.05255888325765                       0
   304   1      7.8768701308860702      19.918584287042087                       0
   305   1      7.3685007407281553      20.784609690826528                       0
   306   1      7.8770323148692736      21.650635094610966                       0
   307   1      7.3686079144465033      22.516660498395403                       0
   308   1      7.8771135890335398      23.382685902179841                       0
   309   1      7.3686615915854645      24.248711305964282                       0
   310   1       7.877154278428744      25.114736709748719                       0
   311   1      7.3686884571599105      25.980762113533157                       0
   312   1      7.8771746395516615      26.846787517317594                       0
   313   1      7.3687018989028399      27.712812921102035                       0
   314   1      7.8771848258878272      28.578838324886473                       0
   315   1       7.368708623113724      29.444863728670914                       0
   316   1      7.8771899213331373      30.310889132455351                       0
   317   1       7.368711986604092      31.176914536239789                       0
   318   1      7.8771924700418463      32.042939940024226                       0
   319   1      7.3687136689705657      32.908965343808667                       0
   320   1      7.8771937448511213      33.774990747593108                       0
   321   1      8.2661728193201203                       0                       0
   322   1      8.7731547016581466      0.8660254037844386                       0
   323   1      8.2788931689159337      1.7320508075688772                       0
   324   1      8.7898909920145467       2.598076211353316                       0
   325   1      8.2976306905495605      3.4641016151377544                       0
   326   1      8.8124780311423194      4.3301270189221928                       0
   327   1       8.320497271732977       5.196152422706632                       0
   328   1       8.837162683630746      6.0621778264910704                       0
   329   1      8.3427740803792396      6.9282032302755088                       0
   330   1      8.8586289935324256      7.7942286340599471                       0
   331   1      8.3601894471510718      8.6602540378443855                       0
   332   1      8.8738896727780752      9.5262794416288248                       0
   333   1      8.3716071006234962      10.392304845413264                       0
   334   1       8.883252695288979      11.258330249197703                       0
   335   1      8.3782540100908545      12.124355652982141                       0
   336   1      8.8884875376969159       12.99038105676658                       0
   337   1      8.3818588166123913      13.856406460551018                       0
   338   1       8.891263212904029      14.722431864335457                       0
   339   1      8.3837389158008921      15.588457268119894                       0
   340   1      8.8926936692708516      16.454482671904334                       0
   341   1      8.3846995313890922      17.320508075688771                       0
   342   1      8.8934200551237215      18.186533479473209                       0
   343   1       8.385185192032317       19.05255888325765                       0
   344   1      8.8937861483375471      19.918584287042087                       0
   345   1      8.3854294179750344      20.784609690826528                       0
   346   1       8.893969956851846      21.650635094610966                       0
   347   1      8.3855519022245755      22.516660498395403                       0
   348   1      8.8940620675713458      23.382685902179841                       0
   349   1      8.3856132475262459      24.248711305964282                       0
   350   1      8.8941081822192434      25.114736709748719                       0
   351   1      8.3856439510398992      25.980762113533157                       0
   352   1      8.8941312581585503      26.846787517317594                       0
   353   1      8.3856593130318178      27.712812921102035                       0
   354   1      8.8941428026728708      28.578838324886473                       0