(written by ASE)

4000 atoms
1 atom types

0.0      101.68745393889536  xlo xhi
0.0      34.641016151377542  ylo yhi
0.0                    0.25  zlo zhi

Atoms # atomic

     1   1     0.24999999999999534                       0                       0
     2   1     0.75002961668717272      0.8660254037844386                       0
     3   1     0.24999999999999545      1.7320508075688772                       0
     4   1     0.75005900805564452       2.598076211353316                       0
     5   1     0.24999999999999556      3.4641016151377544                       0
     6   1     0.75011716276733786      4.3301270189221928                       0
     7   1     0.24999999999999567       5.196152422706632                       0
     8   1     0.75023105852904681      6.0621778264910704                       0
     9   1     0.24999999999999578      6.9282032302755088                       0
    10   1     0.75044971983912867      7.7942286340599471                       0
    11   1     0.24999999999999589      8.6602540378443855                       0
    12   1      0.7508538892554214      9.5262794416288248                       0
    13   1     0.24999999999999589      10.392304845413264                       0
    14   1     0.75155112649089506      11.258330249197703                       0
    15   1       0.249999999999996      12.124355652982141                       0
    16   1     0.75262193953258261       12.99038105676658                       0
    17   1     0.24999999999999611      13.856406460551018                       0
    18   1     0.75400470693826405      14.722431864335457                       0
    19   1     0.24999999999999634      15.588457268119894                       0
    20   1     0.75543953649256379      16.454482671904334                       0
    21   1     0.24999999999999645      17.320508075688771                       0
    22   1     0.75662712735289051      18.186533479473209                       0
    23   1     0.24999999999999656       19.05255888325765                       0
    24   1     0.75743951126514164      19.918584287042087                       0
    25   1     0.24999999999999667      20.784609690826528                       0
    26   1     0.75792543851699334      21.650635094610966                       0
    27   1     0.24999999999999678      22.516660498395403                       0
    28   1     0.75819310075352453      23.382685902179841                       0
    29   1     0.24999999999999689      24.248711305964282                       0
    30   1      0.7583338748446663      25.114736709748719                       0
    31   1     0.24999999999999689      25.980762113533157                       0
    32   1     0.75840611551161341      26.846787517317594                       0
    33   1       0.249999999999997      27.712812921102035                       0
    34   1     0.75844271955766474      28.578838324886473                       0
    35   1     0.24999999999999711      29.444863728670914                       0
    36   1     0.75846114741995752      30.310889132455351                       0
    37   1     0.24999999999999722      31.176914536239789                       0
    38   1     0.75847039457614296      32.042939940024226                       0
    39   1     0.24999999999999734      32.908965343808667                       0
    40   1     0.75847502725282212      33.774990747593108                       0
    41   1      1.2500419340470814                       0                       0
    42   1      1.7500888500615275      0.8660254037844386                       0
    43   1       1.250083634025464      1.7320508075688772                       0
    44   1      1.7501770241669425       2.598076211353316                       0
    45   1      1.2501663933637222      3.4641016151377544                       0
    46   1      1.7503514883020226      4.3301270189221928                       0
    47   1      1.2503294477686868       5.196152422706632                       0
    48   1      1.7506931755871489      6.0621778264910704                       0
    49   1      1.2506461367230957      6.9282032302755088                       0
    50   1      1.7513491595173942      7.7942286340599471                       0
    51   1      1.2512444688772968      8.6602540378443855                       0
    52   1      1.7525616677662725      9.5262794416288248                       0
    53   1      1.2523181319990919      10.392304845413264                       0
    54   1      1.7546533794726931      11.258330249197703                       0
    55   1      1.2540777368384166      12.124355652982141                       0
    56   1      1.7578658185977556       12.99038105676658                       0
    57   1      1.2565733354771949      13.856406460551018                       0
    58   1      1.7620141208147997      14.722431864335457                       0
    59   1      1.2594730700922523      15.588457268119894                       0
    60   1      1.7663186094776986      16.454482671904334                       0
    61   1      1.2621549362305873      17.320508075688771                       0
    62   1      1.7698813820586787      18.186533479473209                       0
    63   1      1.2641599643236661       19.05255888325765                       0
    64   1      1.7723185337954317      19.918584287042087                       0
    65   1      1.2654332860194426      20.784609690826528                       0
    66   1      1.7737763155509869      21.650635094610966                       0
    67   1      1.2661601152596473      22.516660498395403                       0
    68   1      1.7745793022605802      23.382685902179841                       0
    69   1      1.2665499519209142      24.248711305964282                       0
    70   1      1.7750016245340055      25.114736709748719                       0
    71   1      1.2667520763590185      25.980762113533157                       0
    72   1      1.7752183465348463      26.846787517317594                       0
    73   1      1.2668550352154382      27.712812921102035                       0
    74   1      1.7753281586730003      28.578838324886473                       0
    75   1       1.266907007735353      29.444863728670914                       0
    76   1      1.7753834422598782      30.310889132455351                       0
    77   1      1.2669331229216256      31.176914536239789                       0
    78   1      1.7754111837284345      32.042939940024226                       0
    79   1      1.2669462150738802      32.908965343808667                       0
    80   1      1.7754250817584718      33.774990747593108                       0
    81   1      2.2500838680941677                       0                       0
    82   1       2.750148083435882      0.8660254037844386                       0
    83   1      2.2501672680509328      1.7320508075688772                       0
    84   1      2.7502950402782407       2.598076211353316                       0
    85   1      2.2503327867274483      3.4641016151377544                       0
    86   1       2.750585813836707      4.3301270189221928                       0
    87   1      2.2506588955373781       5.196152422706632                       0
    88   1      2.7511552926452514      6.0621778264910704                       0
    89   1      2.2512922734461953      6.9282032302755088                       0
    90   1        2.75224859919566      7.7942286340599471                       0
    91   1       2.252488937754598      8.6602540378443855                       0
    92   1      2.7542694462771236      9.5262794416288248                       0
    93   1      2.2546362639981878      10.392304845413264                       0
    94   1       2.757755632454491      11.258330249197703                       0
    95   1      2.2581554736768377      12.124355652982141                       0
    96   1      2.7631096976629284       12.99038105676658                       0
    97   1      2.2631466709543933      13.856406460551018                       0
    98   1      2.7700235346913349      14.722431864335457                       0
    99   1      2.2689461401845081      15.588457268119894                       0
   100   1      2.7771976824628335      16.454482671904334                       0
   101   1      2.2743098724611777      17.320508075688771                       0
   102   1      2.7831356367644666      18.186533479473209                       0
   103   1      2.2783199286473357       19.05255888325765                       0
   104   1      2.7871975563257223      19.918584287042087                       0
   105   1      2.2808665720388883      20.784609690826528                       0
   106   1      2.7896271925849803      21.650635094610966                       0
   107   1      2.2823202305192973      22.516660498395403                       0
   108   1       2.790965503767636      23.382685902179841                       0
   109   1      2.2830999038418311      24.248711305964282                       0
   110   1       2.791669374223344      25.114736709748719                       0
   111   1      2.2835041527180406      25.980762113533157                       0
   112   1      2.7920305775580796      26.846787517317594                       0
   113   1       2.283710070430879      27.712812921102035                       0
   114   1      2.7922135977883356      28.578838324886473                       0
   115   1      2.2838140154707087      29.444863728670914                       0
   116   1      2.7923057370997988      30.310889132455351                       0
   117   1      2.2838662458432535      31.176914536239789                       0
   118   1      2.7923519728807258      32.042939940024226                       0
   119   1       2.283892430147763      32.908965343808667                       0
   120   1      2.7923751362641216      33.774990747593108                       0
   121   1       3.250125802141254                       0                       0
   122   1      3.7502073168102368      0.8660254037844386                       0
   123   1      3.2502509020764014      1.7320508075688772                       0
   124   1      3.7504130563895388       2.598076211353316                       0
   125   1      3.2504991800911749      3.4641016151377544                       0
   126   1      3.7508201393713914      4.3301270189221928                       0
   127   1      3.2509883433060693       5.196152422706632                       0
   128   1      3.7516174097033539      6.0621778264910704                       0
   129   1       3.251938410169295      6.9282032302755088                       0
   130   1      3.7531480388739253      7.7942286340599471                       0
   131   1      3.2537334066318988      8.6602540378443855                       0
   132   1      3.7559772247879741      9.5262794416288248                       0
   133   1      3.2569543959972838      10.392304845413264                       0
   134   1      3.7608578854362888      11.258330249197703                       0
   135   1      3.2622332105152583      12.124355652982141                       0
   136   1      3.7683535767281016       12.99038105676658                       0
   137   1      3.2697200064315917      13.856406460551018                       0
   138   1      3.7780329485678705      14.722431864335457                       0
   139   1      3.2784192102767644      15.588457268119894                       0
   140   1       3.788076755447968      16.454482671904334                       0
   141   1      3.2864648086917687      17.320508075688771                       0
   142   1       3.796389891470255      18.186533479473209                       0
   143   1      3.2924798929710053       19.05255888325765                       0
   144   1      3.8020765788560125      19.918584287042087                       0
   145   1       3.296299858058334      20.784609690826528                       0
   146   1      3.8054780696189736      21.650635094610966                       0
   147   1      3.2984803457789478      22.516660498395403                       0
   148   1      3.8073517052746912      23.382685902179841                       0
   149   1      3.2996498557627483      24.248711305964282                       0
   150   1      3.8083371239126831      25.114736709748719                       0
   151   1      3.3002562290770623      25.980762113533157                       0
   152   1      3.8088428085813124      26.846787517317594                       0
   153   1      3.3005651056463203      27.712812921102035                       0
   154   1      3.8090990369036715      28.578838324886473                       0
   155   1      3.3007210232060644      29.444863728670914                       0
   156   1      3.8092280319397194      30.310889132455351                       0
   157   1      3.3007993687648818      31.176914536239789                       0
   158   1      3.8092927620330168      32.042939940024226                       0
   159   1      3.3008386452216456      32.908965343808667                       0
   160   1      3.8093251907697709      33.774990747593108                       0
   161   1      4.2501677361883399                       0                       0
   162   1      4.7502665501845911      0.8660254037844386                       0
   163   1      4.2503345361018701      1.7320508075688772                       0
   164   1      4.7505310725008369       2.598076211353316                       0
   165   1       4.250665573454901      3.4641016151377544                       0
   166   1      4.7510544649060762      4.3301270189221928                       0
   167   1      4.2513177910747597       5.196152422706632                       0
   168   1       4.752079526761456      6.0621778264910704                       0
   169   1      4.2525845468923951      6.9282032302755088                       0
   170   1      4.7540474785521907      7.7942286340599471                       0
   171   1      4.2549778755091996      8.6602540378443855                       0
   172   1      4.7576850032988256      9.5262794416288248                       0
   173   1      4.2592725279963801      10.392304845413264                       0
   174   1      4.7639601384180867      11.258330249197703                       0
   175   1      4.2663109473536789      12.124355652982141                       0
   176   1      4.7735974557932739       12.99038105676658                       0
   177   1      4.2762933419087901      13.856406460551018                       0
   178   1      4.7860423624444053      14.722431864335457                       0
   179   1      4.2878922803690207      15.588457268119894                       0
   180   1      4.7989558284331029      16.454482671904334                       0
   181   1      4.2986197449223589      17.320508075688771                       0
   182   1      4.8096441461760424      18.186533479473209                       0
   183   1      4.3066398572946749       19.05255888325765                       0
   184   1      4.8169556013863026      19.918584287042087                       0
   185   1      4.3117331440777793      20.784609690826528                       0
   186   1       4.821328946652967      21.650635094610966                       0
   187   1      4.3146404610385991      22.516660498395403                       0
   188   1      4.8237379067817479      23.382685902179841                       0
   189   1      4.3161998076836667      24.248711305964282                       0
   190   1      4.8250048736020226      25.114736709748719                       0
   191   1      4.3170083054360839      25.980762113533157                       0
   192   1      4.8256550396045448      26.846787517317594                       0
   193   1      4.3174201408617616      27.712812921102035                       0
   194   1      4.8259844760190065      28.578838324886473                       0
   195   1      4.3176280309414201      29.444863728670914                       0
   196   1        4.82615032677964      30.310889132455351                       0
   197   1      4.3177324916865096      31.176914536239789                       0
   198   1      4.8262335511853083      32.042939940024226                       0
   199   1      4.3177848602955278      32.908965343808667                       0
   200   1      4.8262752452754203      33.774990747593108                       0
   201   1      5.2502096702354262                       0                       0
   202   1      5.7503257835589459      0.8660254037844386                       0
   203   1      5.2504181701273378      1.7320508075688772                       0
   204   1      5.7506490886121355       2.598076211353316                       0
   205   1      5.2508319668186285      3.4641016151377544                       0
   206   1      5.7512887904407606      4.3301270189221928                       0
   207   1      5.2516472388434519       5.196152422706632                       0
   208   1      5.7525416438195585      6.0621778264910704                       0
   209   1      5.2532306836154934      6.9282032302755088                       0
   210   1      5.7549469182304556      7.7942286340599471                       0
   211   1      5.2562223443865008      8.6602540378443855                       0
   212   1      5.7593927818096766      9.5262794416288248                       0
   213   1      5.2615906599954769      10.392304845413264                       0
   214   1      5.7670623913998842      11.258330249197703                       0
   215   1       5.270388684192099      12.124355652982141                       0
   216   1      5.7788413348584466       12.99038105676658                       0
   217   1      5.2828666773859894      13.856406460551018                       0
   218   1      5.7940517763209414      14.722431864335457                       0
   219   1       5.297365350461277      15.588457268119894                       0
   220   1      5.8098349014182382      16.454482671904334                       0
   221   1      5.3107746811529495      17.320508075688771                       0
   222   1      5.8228984008818312      18.186533479473209                       0
   223   1      5.3207998216183441       19.05255888325765                       0
   224   1      5.8318346239165919      19.918584287042087                       0
   225   1      5.3271664300972255      20.784609690826528                       0
   226   1      5.8371798236869594      21.650635094610966                       0
   227   1        5.33080057629825      22.516660498395403                       0
   228   1      5.8401241082888031      23.382685902179841                       0
   229   1      5.3327497596045834      24.248711305964282                       0
   230   1      5.8416726232913607      25.114736709748719                       0
   231   1      5.3337603817951056      25.980762113533157                       0
   232   1      5.8424672706277789      26.846787517317594                       0
   233   1      5.3342751760772025      27.712812921102035                       0
   234   1       5.842869915134342      28.578838324886473                       0
   235   1      5.3345350386767763      29.444863728670914                       0
   236   1      5.8430726216195605      30.310889132455351                       0
   237   1      5.3346656146081379      31.176914536239789                       0
   238   1      5.8431743403375993      32.042939940024226                       0
   239   1      5.3347310753694099      32.908965343808667                       0
   240   1      5.8432252997810696      33.774990747593108                       0
   241   1      6.2502516042825125                       0                       0
   242   1      6.7503850169333006      0.8660254037844386                       0
   243   1      6.2505018041528064      1.7320508075688772                       0
   244   1      6.7507671047234332       2.598076211353316                       0
   245   1      6.2509983601823542      3.4641016151377544                       0
   246   1       6.751523115975445      4.3301270189221928                       0
   247   1      6.2519766866121422       5.196152422706632                       0
   248   1      6.7530037608776592      6.0621778264910704                       0
   249   1      6.2538768203385935      6.9282032302755088                       0
   250   1      6.7558463579087213      7.7942286340599471                       0
   251   1      6.2574668132638021      8.6602540378443855                       0
   252   1      6.7611005603205285      9.5262794416288248                       0
   253   1       6.263908791994572      10.392304845413264                       0
   254   1      6.7701646443816834      11.258330249197703                       0
   255   1      6.2744664210305192      12.124355652982141                       0
   256   1      6.7840852139236194       12.99038105676658                       0
   257   1      6.2894400128631869      13.856406460551018                       0
   258   1      6.8020611901974775      14.722431864335457                       0
   259   1      6.3068384205535324      15.588457268119894                       0
   260   1      6.8207139744033736      16.454482671904334                       0
   261   1      6.3229296173835401      17.320508075688771                       0
   262   1        6.83615265558762      18.186533479473209                       0
   263   1      6.3349597859420133       19.05255888325765                       0
   264   1       6.846713646446883      19.918584287042087                       0
   265   1      6.3425997161166716      20.784609690826528                       0
   266   1      6.8530307007209537      21.650635094610966                       0
   267   1         6.3469606915579      22.516660498395403                       0
   268   1      6.8565103097958584      23.382685902179841                       0
   269   1      6.3492997115255001      24.248711305964282                       0
   270   1      6.8583403729807006      25.114736709748719                       0
   271   1      6.3505124581541281      25.980762113533157                       0
   272   1      6.8592795016510113      26.846787517317594                       0
   273   1      6.3511302112926433      27.712812921102035                       0
   274   1      6.8597553542496783      28.578838324886473                       0
   275   1      6.3514420464121315      29.444863728670914                       0
   276   1      6.8599949164594811      30.310889132455351                       0
   277   1      6.3515987375297662      31.176914536239789                       0
   278   1      6.8601151294898912      32.042939940024226                       0
   279   1       6.351677290443293      32.908965343808667                       0
   280   1       6.860175354286719      33.774990747593108                       0
   281   1      7.2502935383295988                       0                       0
   282   1      7.7504442503076554      0.8660254037844386                       0
   283   1      7.2505854381782751      1.7320508075688772                       0
   284   1      7.7508851208347309       2.598076211353316                       0
   285   1      7.2511647535460799      3.4641016151377544                       0
   286   1      7.7517574415101294      4.3301270189221928                       0
   287   1      7.2523061343808326       5.196152422706632                       0
   288   1      7.7534658779357617      6.0621778264910704                       0
   289   1      7.2545229570616936      6.9282032302755088                       0
   290   1      7.7567457975869871      7.7942286340599471                       0
   291   1      7.2587112821411033      8.6602540378443855                       0
   292   1      7.7628083388313787      9.5262794416288248                       0
   293   1      7.2662269239936688      10.392304845413264                       0
   294   1      7.7732668973634809      11.258330249197703                       0
   295   1      7.2785441578689412      12.124355652982141                       0
   296   1      7.7893290929887922       12.99038105676658                       0
   297   1      7.2960133483403862      13.856406460551018                       0
   298   1      7.8100706040740118      14.722431864335457                       0
   299   1      7.3163114906457896      15.588457268119894                       0
   300   1      7.8315930473885071      16.454482671904334                       0
   301   1      7.3350845536141325      17.320508075688771                       0
   302   1       7.849406910293407      18.186533479473209                       0
   303   1      7.3491197502656824       19.05255888325765                       0
   304   1      7.8615926689771722      19.918584287042087                       0
   305   1      7.3580330021361178      20.784609690826528                       0
   306   1      7.8688815777549461      21.650635094610966                       0
   307   1        7.36312080681755      22.516660498395403                       0
   308   1      7.8728965113029137      23.382685902179841                       0
   309   1      7.3658496634464186      24.248711305964282                       0
   310   1      7.8750081226700388      25.114736709748719                       0
   311   1      7.3672645345131489      25.980762113533157                       0
   312   1      7.8760917326742437      26.846787517317594                       0
   313   1      7.3679852465080842      27.712812921102035                       0
   314   1      7.8766407933650129      28.578838324886473                       0
   315   1      7.3683490541474868      29.444863728670914                       0
   316   1      7.8769172112994017      30.310889132455351                       0
   317   1      7.3685318604513945      31.176914536239789                       0
   318   1      7.8770559186421831      32.042939940024226                       0
   319   1       7.368623505517176      32.908965343808667                       0
   320   1      7.8771254087923683      33.774990747593108                       0
   321   1      8.2503354723766851                       0                       0
   322   1      8.7505034836820101      0.8660254037844386                       0
   323   1      8.2506690722037437      1.7320508075688772                       0
   324   1      8.7510031369460286       2.598076211353316                       0
   325   1      8.2513311469098074      3.4641016151377544                       0
   326   1      8.7519917670448137      4.3301270189221928                       0
   327   1      8.2526355821495248       5.196152422706632                       0
   328   1      8.7539279949938642      6.0621778264910704                       0
   329   1      8.2551690937847937      6.9282032302755088                       0
   330   1      8.7576452372652529      7.7942286340599471                       0
   331   1      8.2599557510184027      8.6602540378443855                       0
   332   1      8.7645161173422288      9.5262794416288248                       0
   333   1      8.2685450559927638      10.392304845413264                       0
   334   1      8.7763691503452783      11.258330249197703                       0
   335   1      8.2826218947073595      12.124355652982141                       0
   336   1      8.7945729720539649       12.99038105676658                       0
   337   1      8.3025866838175837      13.856406460551018                       0
   338   1      8.8180800179505461      14.722431864335457                       0
   339   1       8.325784560738045      15.588457268119894                       0
   340   1      8.8424721203736425      16.454482671904334                       0
   341   1      8.3472394898447231      17.320508075688771                       0
   342   1      8.8626611649991958      18.186533479473209                       0
   343   1      8.3632797145893534       19.05255888325765                       0
   344   1      8.8764716915074633      19.918584287042087                       0
   345   1      8.3734662881555639      20.784609690826528                       0
   346   1      8.8847324547889404      21.650635094610966                       0
   347   1         8.3792809220772      22.516660498395403                       0
   348   1      8.8892827128099707      23.382685902179841                       0
   349   1      8.3823996153673352      24.248711305964282                       0
   350   1      8.8916758723593787      25.114736709748719                       0
   351   1      8.3840166108721714      25.980762113533157                       0
   352   1      8.8929039636974778      26.846787517317594                       0
   353   1       8.384840281723525      27.712812921102035                       0
   354   1      8.8935262324803492      28.578838324886473                       0