(written by ASE)

4000 atoms
1 atom types

0.0                     100  xlo xhi
0.0      35.641016151377542  ylo yhi
0.0                    0.25  zlo zhi

Atoms # atomic

     1   1  5.4973928511236521e-17     0.43301270189221686                       0
     2   1                     0.5      1.2990381057479956                       0
     3   1  1.5497392851123652e-16      2.1650635095779109                       0
     4   1     0.50000000000000011      3.0310889134595533                       0
     5   1  2.5497392851123652e-16      3.8971143172636049                       0
     6   1     0.50000000000000022      4.7631397211711102                       0
     7   1  3.5497392851123652e-16      5.6291651249492993                       0
     8   1     0.50000000000000033      6.4951905288826683                       0
     9   1  4.5497392851123651e-16      7.3612159326349929                       0
    10   1     0.50000000000000044      8.2272413365942256                       0
    11   1  5.5497392851123656e-16      9.0932667403206864                       0
    12   1     0.50000000000000056      9.9592921443057829                       0
    13   1  6.5497392851123651e-16      10.825317548006382                       0
    14   1     0.50000000000000067      11.691342952017342                       0
    15   1  7.5497392851123656e-16      12.557368355692075                       0
    16   1     0.50000000000000078      13.423393759728899                       0
    17   1   8.549739285112365e-16      14.289419163377769                       0
    18   1     0.50000000000000089      15.155444567440457                       0
    19   1  1.0549739285112366e-15       16.02146997106346                       0
    20   1       0.500000000000001      16.887495375152014                       0
    21   1  1.1549739285112364e-15       18.75352077647123                       0
    22   1     0.50000000000000111      19.619546180081304                       0
    23   1  1.2549739285112365e-15      20.485571584156926                       0
    24   1     0.50000000000000122       21.35159698779286                       0
    25   1  1.3549739285112365e-15      22.217622391842621                       0
    26   1     0.50000000000000122      23.083647795504419                       0
    27   1  1.4549739285112366e-15      23.949673199528313                       0
    28   1     0.50000000000000133      24.815698603215974                       0
    29   1  1.5549739285112364e-15      25.681724007214008                       0
    30   1     0.50000000000000144      26.547749410927533                       0
    31   1  1.6549739285112365e-15        27.4137748148997                       0
    32   1     0.50000000000000155      28.279800218639089                       0
    33   1  1.7549739285112365e-15      29.145825622585395                       0
    34   1     0.50000000000000167      30.011851026350648                       0
    35   1  1.8549739285112368e-15       30.87787643027109                       0
    36   1     0.50000000000000178      31.743901834062207                       0
    37   1  1.9549739285112368e-15      32.609927237956782                       0
    38   1     0.50000000000000189      33.475952641773766                       0
    39   1  2.0549739285112369e-15      34.341978045642477                       0
    40   1       0.500000000000002      35.208003449485325                       0
    41   1                       1     0.43301270189221686                       0
    42   1                     1.5      1.2990381057830824                       0
    43   1                       1      2.1650635096353641                       0
    44   1                     1.5       3.031088913564814                       0
    45   1      1.0000000000000002      3.8971143173785117                       0
    46   1      1.5000000000000002       4.763139721346545                       0
    47   1      1.0000000000000002      5.6291651251216592                       0
    48   1      1.5000000000000002      6.4951905291282763                       0
    49   1      1.0000000000000004      7.3612159328648064                       0
    50   1      1.5000000000000004      8.2272413369100068                       0
    51   1      1.0000000000000004      9.0932667406079535                       0
    52   1      1.5000000000000004      9.9592921446917391                       0
    53   1      1.0000000000000007      10.825317548351101                       0
    54   1      1.5000000000000007      11.691342952473471                       0
    55   1      1.0000000000000007       12.55736835609425                       0
    56   1      1.5000000000000007      13.423393760255202                       0
    57   1      1.0000000000000009      14.289419163837396                       0
    58   1      1.5000000000000009      15.155444568036932                       0
    59   1      1.0000000000000009       16.02146997158054                       0
    60   1      1.5000000000000009      16.887495375818663                       0
    61   1      1.0000000000000011      18.753520775925423                       0
    62   1      1.5000000000000011      19.619546179449738                       0
    63   1      1.0000000000000011       20.48557158366857                       0
    64   1      1.5000000000000011      21.351596987231471                       0
    65   1      1.0000000000000013      22.217622391411719                       0
    66   1      1.5000000000000013      23.083647795013203                       0
    67   1      1.0000000000000013      23.949673199154866                       0
    68   1      1.5000000000000013      24.815698602794932                       0
    69   1      1.0000000000000016      25.681724006898012                       0
    70   1      1.5000000000000016      26.547749410576667                       0
    71   1      1.0000000000000016      27.413774814641158                       0
    72   1      1.5000000000000016      28.279800218358396                       0
    73   1      1.0000000000000018      29.145825622384308                       0
    74   1      1.5000000000000018      30.011851026140128                       0
    75   1      1.0000000000000018      30.877876430127454                       0
    76   1      1.5000000000000018      31.743901833921861                       0
    77   1       1.000000000000002        32.6099272378706                       0
    78   1       1.500000000000002      33.475952641703586                       0
    79   1       1.000000000000002       34.34197804561375                       0
    80   1       1.500000000000002      35.208003449485325                       0
    81   1                       2     0.43301270189221686                       0
    82   1                     2.5      1.2990381058354259                       0
    83   1                       2      2.1650635097210746                       0
    84   1                     2.5      3.0310889137218444                       0
    85   1                       2      3.8971143175499323                       0
    86   1                     2.5      4.7631397216082618                       0
    87   1      2.0000000000000004      5.6291651253787904                       0
    88   1      2.5000000000000004      6.4951905294946801                       0
    89   1      2.0000000000000004      7.3612159332076477                       0
    90   1      2.5000000000000004      8.2272413373810984                       0
    91   1      2.0000000000000004      9.0932667410365049                       0
    92   1      2.5000000000000004      9.9592921452675167                       0
    93   1      2.0000000000000004      10.825317548865364                       0
    94   1      2.5000000000000004      11.691342953153937                       0
    95   1      2.0000000000000009      12.557368356694221                       0
    96   1      2.5000000000000009      13.423393761040353                       0
    97   1      2.0000000000000009      14.289419164523078                       0
    98   1      2.5000000000000009      15.155444568926772                       0
    99   1      2.0000000000000009      16.021469972351934                       0
   100   1      2.5000000000000009      16.887495376813188                       0
   101   1      2.0000000000000009      18.753520775111173                       0
   102   1      2.5000000000000009      19.619546178507559                       0
   103   1      2.0000000000000013      20.485571582940032                       0
   104   1      2.5000000000000013      21.351596986393975                       0
   105   1      2.0000000000000013      22.217622390768891                       0
   106   1      2.5000000000000013      23.083647794280395                       0
   107   1      2.0000000000000013      23.949673198597747                       0
   108   1      2.5000000000000013      24.815698602166812                       0
   109   1      2.0000000000000013      25.681724006426606                       0
   110   1      2.5000000000000013      26.547749410053232                       0
   111   1      2.0000000000000018      27.413774814255461                       0
   112   1      2.5000000000000018      28.279800217939648                       0
   113   1      2.0000000000000018       29.14582562208432                       0
   114   1      2.5000000000000018      30.011851025826068                       0
   115   1      2.0000000000000018      30.877876429913179                       0
   116   1      2.5000000000000018      31.743901833712485                       0
   117   1      2.0000000000000018      32.609927237742035                       0
   118   1      2.5000000000000018      33.475952641598901                       0
   119   1      2.0000000000000022       34.34197804557089                       0
   120   1      2.5000000000000022      35.208003449485325                       0
   121   1                       3     0.43301270189221686                       0
   122   1                     3.5       1.299038105913513                       0
   123   1                       3      2.1650635098489395                       0
   124   1                     3.5      3.0310889139561059                       0
   125   1                       3       3.897114317805662                       0
   126   1                     3.5       4.763139721998698                       0
   127   1      3.0000000000000004      5.6291651257623849                       0
   128   1      3.5000000000000004      6.4951905300412909                       0
   129   1      3.0000000000000004       7.361215933719107                       0
   130   1      3.5000000000000004       8.227241338083882                       0
   131   1      3.0000000000000004      9.0932667416758299                       0
   132   1      3.5000000000000004      9.9592921461264758                       0
   133   1      3.0000000000000004      10.825317549632553                       0
   134   1      3.5000000000000004       11.69134295416907                       0
   135   1      3.0000000000000009      12.557368357589276                       0
   136   1      3.5000000000000009      13.423393762211662                       0
   137   1      3.0000000000000009      14.289419165545997                       0
   138   1      3.5000000000000009      15.155444570254254                       0
   139   1      3.0000000000000009      16.021469973502718                       0
   140   1      3.5000000000000009      16.887495378296844                       0
   141   1      3.0000000000000009      18.753520773896458                       0
   142   1      3.5000000000000009      19.619546177101988                       0
   143   1      3.0000000000000013      20.485571581853183                       0
   144   1      3.5000000000000013      21.351596985144582                       0
   145   1      3.0000000000000013      22.217622389809904                       0
   146   1      3.5000000000000013      23.083647793187176                       0
   147   1      3.0000000000000013      23.949673197766625                       0
   148   1      3.5000000000000013      24.815698601229766                       0
   149   1      3.0000000000000013       25.68172400572335                       0
   150   1      3.5000000000000013       26.54774940927236                       0
   151   1      3.0000000000000018      27.413774813680071                       0
   152   1      3.5000000000000018       28.27980021731495                       0
   153   1      3.0000000000000018      29.145825621636792                       0
   154   1      3.5000000000000018      30.011851025357544                       0
   155   1      3.0000000000000018      30.877876429593517                       0
   156   1      3.5000000000000018      31.743901833400137                       0
   157   1      3.0000000000000018      32.609927237550238                       0
   158   1      3.5000000000000018      33.475952641442724                       0
   159   1      3.0000000000000022      34.341978045506963                       0
   160   1      3.5000000000000022      35.208003449485325                       0
   161   1                       4     0.43301270189221686                       0
   162   1                     4.5      1.2990381060300056                       0
   163   1                       4      2.1650635100396913                       0
   164   1                     4.5      3.0310889143055832                       0
   165   1                       4      3.8971143181871657                       0
   166   1                     4.5        4.76313972258116                       0
   167   1                       4      5.6291651263346409                       0
   168   1                     4.5      6.4951905308567381                       0
   169   1                       4      7.3612159344821144                       0
   170   1                     4.5      8.2272413391323145                       0
   171   1      4.0000000000000009      9.0932667426295879                       0
   172   1      4.5000000000000009      9.9592921474078935                       0
   173   1      4.0000000000000009      10.825317550777065                       0
   174   1      4.5000000000000009      11.691342955683472                       0
   175   1      4.0000000000000009      12.557368358924538                       0
   176   1      4.5000000000000009       13.42339376395905                       0
   177   1      4.0000000000000009      14.289419167072012                       0
   178   1      4.5000000000000009      15.155444572234627                       0
   179   1      4.0000000000000009      16.021469975219485                       0
   180   1      4.5000000000000009      16.887495380510202                       0
   181   1      4.0000000000000009      18.753520772084315                       0
   182   1      4.5000000000000009      19.619546175005123                       0
   183   1      4.0000000000000009      20.485571580231792                       0
   184   1      4.5000000000000009        21.3515969832807                       0
   185   1      4.0000000000000009      22.217622388379265                       0
   186   1      4.5000000000000009      23.083647791556281                       0
   187   1      4.0000000000000018      23.949673196526739                       0
   188   1      4.5000000000000018      24.815698599831855                       0
   189   1      4.0000000000000018      25.681724004674212                       0
   190   1      4.5000000000000018      26.547749408107435                       0
   191   1      4.0000000000000018      27.413774812821686                       0
   192   1      4.5000000000000018      28.279800216383009                       0
   193   1      4.0000000000000018      29.145825620969163                       0
   194   1      4.5000000000000018       30.01185102465859                       0
   195   1      4.0000000000000018      30.877876429116636                       0
   196   1      4.5000000000000018      31.743901832934167                       0
   197   1      4.0000000000000018       32.60992723726411                       0
   198   1      4.5000000000000018      33.475952641209744                       0
   199   1      4.0000000000000018      34.341978045411587                       0
   200   1      4.5000000000000018      35.208003449485325                       0
   201   1                       5     0.43301270189221686                       0
   202   1                     5.5      1.2990381062037919                       0
   203   1                       5      2.1650635103242597                       0
   204   1                     5.5      3.0310889148269422                       0
   205   1                       5      3.8971143187563024                       0
   206   1                     5.5      4.7631397234500916                       0
   207   1                       5      5.6291651271883456                       0
   208   1                     5.5      6.4951905320732424                       0
   209   1                       5      7.3612159356203879                       0
   210   1                     5.5      8.2272413406963913                       0
   211   1      5.0000000000000009      9.0932667440524302                       0
   212   1      5.5000000000000009       9.959292149319543                       0
   213   1      5.0000000000000009      10.825317552484474                       0
   214   1      5.5000000000000009      11.691342957942695                       0
   215   1      5.0000000000000009      12.557368360916517                       0
   216   1      5.5000000000000009      13.423393766565844                       0
   217   1      5.0000000000000009      14.289419169348561                       0
   218   1      5.5000000000000009      15.155444575188994                       0
   219   1      5.0000000000000009      16.021469977780601                       0
   220   1      5.5000000000000009      16.887495383812141                       0
   221   1      5.0000000000000009      18.753520769380913                       0
   222   1      5.5000000000000009      19.619546171876969                       0
   223   1      5.0000000000000009      20.485571577812959                       0
   224   1      5.5000000000000009      21.351596980500119                       0
   225   1      5.0000000000000009      22.217622386245001                       0
   226   1      5.5000000000000009      23.083647789123273                       0
   227   1      5.0000000000000018      23.949673194677043                       0
   228   1      5.5000000000000018      24.815698597746419                       0
   229   1      5.0000000000000018      25.681724003109089                       0
   230   1      5.5000000000000018      26.547749406369572                       0
   231   1      5.0000000000000018      27.413774811541128                       0
   232   1      5.5000000000000018      28.279800214992719                       0
   233   1      5.0000000000000018      29.145825619973174                       0
   234   1      5.5000000000000018      30.011851023615872                       0
   235   1      5.0000000000000018      30.877876428405216                       0
   236   1      5.5000000000000018      31.743901832239022                       0
   237   1      5.0000000000000018      32.609927236837258                       0
   238   1      5.5000000000000018      33.475952640862168                       0
   239   1      5.0000000000000018        34.3419780452693                       0
   240   1      5.5000000000000018      35.208003449485325                       0
   241   1                       6     0.43301270189221686                       0
   242   1                     6.5      1.2990381064630507                       0
   243   1                       6      2.1650635107487859                       0
   244   1                     6.5      3.0310889156047187                       0
   245   1                       6      3.8971143196053548                       0
   246   1                     6.5      4.7631397247463854                       0
   247   1                       6      5.6291651284619242                       0
   248   1                     6.5      6.4951905338880538                       0
   249   1                       6      7.3612159373184927                       0
   250   1                     6.5      8.2272413430297195                       0
   251   1      6.0000000000000009      9.0932667461750611                       0
   252   1      6.5000000000000009       9.959292152171388                       0
   253   1      6.0000000000000009      10.825317555031631                       0
   254   1      6.5000000000000009      11.691342961313058                       0
   255   1      6.0000000000000009        12.5573683638882                       0
   256   1      6.5000000000000009      13.423393770454725                       0
   257   1      6.0000000000000009      14.289419172744768                       0
   258   1      6.5000000000000009      15.155444579596391                       0
   259   1      6.0000000000000009      16.021469981601339                       0
   260   1      6.5000000000000009      16.887495388738056                       0
   261   1      6.0000000000000009      18.753520765347915                       0
   262   1      6.5000000000000009      19.619546167210313                       0
   263   1      6.0000000000000009      20.485571574204485                       0
   264   1      6.5000000000000009      21.351596976351981                       0
   265   1      6.0000000000000009      22.217622383061055                       0
   266   1      6.5000000000000009       23.08364778549365                       0
   267   1      6.0000000000000018      23.949673191917622                       0
   268   1      6.5000000000000018      24.815698594635315                       0
   269   1      6.0000000000000018      25.681724000774192                       0
   270   1      6.5000000000000018      26.547749403776983                       0
   271   1      6.0000000000000018      27.413774809630759                       0
   272   1      6.5000000000000018      28.279800212918648                       0
   273   1      6.0000000000000018      29.145825618487329                       0
   274   1      6.5000000000000018       30.01185102206032                       0
   275   1      6.0000000000000018      30.877876427343899                       0
   276   1      6.5000000000000018      31.743901831201988                       0
   277   1      6.0000000000000018      32.609927236200463                       0
   278   1      6.5000000000000018       33.47595264034365                       0
   279   1      6.0000000000000018       34.34197804505704                       0
   280   1      6.5000000000000018      35.208003449485325                       0
   281   1                       7     0.43301270189221686                       0
   282   1                     7.5      1.2990381068498191                       0
   283   1                       7      2.1650635113821046                       0
   284   1                     7.5      3.0310889167650243                       0
   285   1                       7      3.8971143208719923                       0
   286   1                     7.5      4.7631397266802278                       0
   287   1                       7      5.6291651303618799                       0
   288   1                     7.5      6.4951905365954339                       0
   289   1                       7      7.3612159398517676                       0
   290   1                     7.5      8.2272413465106382                       0
   291   1      7.0000000000000009      9.0932667493416552                       0
   292   1      7.5000000000000009      9.9592921564258425                       0
   293   1      7.0000000000000009      10.825317558831545                       0
   294   1      7.5000000000000009      11.691342966341049                       0
   295   1      7.0000000000000009      12.557368368321431                       0
   296   1      7.5000000000000009      13.423393776256253                       0
   297   1      7.0000000000000009      14.289419177811318                       0
   298   1      7.5000000000000009      15.155444586171457                       0
   299   1      7.0000000000000009      16.021469987301206                       0
   300   1      7.5000000000000009       16.88749539608666                       0
   301   1      7.0000000000000009      18.753520759331387                       0
   302   1      7.5000000000000009      19.619546160248479                       0
   303   1      7.0000000000000009      20.485571568821278                       0
   304   1      7.5000000000000009      21.351596970163683                       0
   305   1      7.0000000000000009      22.217622378311166                       0
   306   1      7.5000000000000009      23.083647780078891                       0
   307   1      7.0000000000000018      23.949673187801054                       0
   308   1      7.5000000000000018      24.815698589994092                       0
   309   1      7.0000000000000018      25.681723997290941                       0
   310   1      7.5000000000000018        26.5477493999093                       0
   311   1      7.0000000000000018      27.413774806780825                       0
   312   1      7.5000000000000018      28.279800209824501                       0
   313   1      7.0000000000000018      29.145825616270717                       0
   314   1      7.5000000000000018      30.011851019739709                       0
   315   1      7.0000000000000018      30.877876425760604                       0
   316   1      7.5000000000000018      31.743901829654913                       0
   317   1      7.0000000000000018      32.609927235250488                       0
   318   1      7.5000000000000018      33.475952639570117                       0
   319   1      7.0000000000000018       34.34197804474038                       0
   320   1      7.5000000000000018      35.208003449485325                       0
   321   1                       8     0.43301270189221686                       0
   322   1                     8.5        1.29903810742681                       0
   323   1                       8      2.1650635123269049                       0
   324   1                     8.5      3.0310889184959966                       0
   325   1                       8      3.8971143227615928                       0
   326   1                     8.5      4.7631397295651823                       0
   327   1                       8      5.6291651331962811                       0
   328   1                     8.5      6.4951905406343693                       0
   329   1                       8      7.3612159436309685                       0
   330   1                     8.5      8.2272413517035545                       0
   331   1                       8       9.093266754065656                       0
   332   1                     8.5      9.9592921627727424                       0
   333   1                       8      10.825317564500345                       0
   334   1                     8.5       11.69134297384193                       0
   335   1                       8      12.557368374935033                       0
   336   1                     8.5      13.423393784911116                       0
   337   1                       8       14.28941918536972                       0
   338   1                     8.5      15.155444595980303                       0
   339   1      8.0000000000000018      16.021469995804409                       0
   340   1      8.5000000000000018      16.887495407049485                       0
   341   1      8.0000000000000018      18.753520750355786                       0
   342   1      8.5000000000000018      19.619546149862643                       0
   343   1      8.0000000000000018      20.485571560790476                       0
   344   1      8.5000000000000018      21.351596960931829                       0
   345   1      8.0000000000000018      22.217622371225165                       0
   346   1      8.5000000000000018      23.083647772001019                       0
   347   1      8.0000000000000018       23.94967318165985                       0
   348   1      8.5000000000000018      24.815698583070201                       0
   349   1      8.0000000000000018       25.68172399209454                       0
   350   1      8.5000000000000018      26.547749394139391                       0
   351   1      8.0000000000000018      27.413774802529225                       0
   352   1      8.5000000000000018      28.279800205208574                       0
   353   1      8.0000000000000018      29.145825612963915                       0
   354   1      8.5000000000000018      30.011851016277763                       0